/*--------------------------------*- C++ -*----------------------------------*\
  =========                 |
  \\      /  F ield         | OpenFOAM: The Open Source CFD Toolbox
   \\    /   O peration     | Website:  https://openfoam.org
    \\  /    A nd           | Version:  7
     \\/     M anipulation  |
\*---------------------------------------------------------------------------*/
FoamFile
{
    version     2.0;
    format      ascii;
    class       volScalarField;
    location    "0.00107";
    object      T;
}
// * * * * * * * * * * * * * * * * * * * * * * * * * * * * * * * * * * * * * //

dimensions      [0 0 0 1 0 0 0];

internalField   nonuniform List<scalar> 
556776
(
353.675
353.675
353.675
353.675
353.675
353.675
353.675
353.675
353.669
400.837
400.837
400.837
400.837
400.838
400.838
400.838
400.838
400.839
422.861
422.861
422.861
422.861
422.862
422.862
422.862
422.863
422.874
429.756
429.756
429.756
429.756
429.756
429.756
429.757
429.759
429.78
427.038
427.039
427.039
427.039
427.039
427.039
427.039
427.044
427.075
417.79
417.79
417.79
417.79
417.791
417.791
417.791
417.797
417.841
403.589
403.59
403.59
403.59
403.59
403.59
403.591
403.598
403.653
385.902
385.902
385.902
385.902
385.902
385.902
385.903
385.913
385.976
365.884
365.884
365.884
365.884
365.884
365.884
365.885
365.896
365.966
344.428
344.428
344.428
344.428
344.429
344.429
344.43
344.442
344.515
322.286
322.286
322.286
322.286
322.286
322.287
322.287
322.301
322.376
300.063
300.063
300.063
300.063
300.063
300.063
300.064
300.078
300.152
278.201
278.201
278.201
278.201
278.201
278.202
278.203
278.217
278.288
256.987
256.987
256.987
256.987
256.988
256.988
256.989
257.004
257.068
236.889
236.889
236.889
236.889
236.89
236.891
236.892
236.906
236.964
218.263
218.262
218.262
218.262
218.263
218.264
218.265
218.278
218.326
201.297
201.296
201.296
201.297
201.297
201.298
201.299
201.311
201.349
186.204
186.203
186.203
186.203
186.204
186.205
186.206
186.216
186.243
173.208
173.207
173.207
173.207
173.208
173.209
173.21
173.218
173.234
162.467
162.466
162.466
162.466
162.467
162.468
162.469
162.474
162.482
154.118
154.117
154.117
154.117
154.118
154.118
154.119
154.123
154.124
147.996
147.995
147.995
147.996
147.996
147.997
147.998
147.999
147.997
143.672
143.672
143.672
143.672
143.672
143.673
143.673
143.674
143.672
140.445
140.444
140.444
140.444
140.445
140.445
140.445
140.446
140.445
137.486
137.486
137.486
137.486
137.486
137.486
137.486
137.489
137.489
135.686
135.686
135.686
135.686
135.686
135.686
135.687
135.687
135.683
134.303
134.303
134.303
134.303
134.303
134.303
134.304
134.304
134.298
133.214
133.214
133.214
133.214
133.214
133.214
133.214
133.215
133.208
132.515
132.514
132.514
132.514
132.514
132.515
132.515
132.515
132.51
132.108
132.108
132.108
132.108
132.108
132.108
132.108
132.108
132.105
131.892
131.892
131.892
131.892
131.892
131.892
131.892
131.892
131.891
131.787
131.787
131.787
131.787
131.787
131.787
131.787
131.787
131.787
131.739
131.739
131.739
131.739
131.739
131.739
131.739
131.739
131.738
131.717
131.717
131.717
131.717
131.717
131.717
131.717
131.717
131.717
131.707
131.707
131.707
131.707
131.707
131.707
131.707
131.707
131.707
131.703
131.703
131.703
131.703
131.703
131.703
131.703
131.703
131.703
131.701
131.701
131.701
131.701
131.701
131.701
131.701
131.701
131.701
131.701
131.701
131.701
131.701
131.701
131.701
131.701
131.701
131.701
131.7
131.7
131.7
131.7
131.7
131.7
131.7
131.7
131.7
131.7
131.7
131.7
131.7
131.7
131.7
131.7
131.7
131.7
131.7
131.7
131.7
131.7
131.7
131.7
131.7
131.7
131.7
131.7
131.7
131.7
131.7
131.7
131.7
131.7
131.7
131.7
131.7
131.7
131.7
131.7
131.7
131.7
131.7
131.7
131.7
131.7
131.7
131.7
131.7
131.7
131.7
131.7
131.7
131.7
131.7
131.7
131.7
131.7
131.7
131.7
131.7
131.7
131.7
131.7
131.7
131.7
131.7
131.7
131.7
131.7
131.7
131.7
131.7
131.7
131.7
131.7
131.7
131.7
131.7
131.7
131.7
131.7
131.7
131.7
131.7
131.7
131.7
131.7
131.7
131.7
131.7
131.7
131.7
131.7
131.7
131.7
131.7
131.7
131.7
131.7
131.7
131.7
131.7
131.7
131.7
131.7
131.7
131.7
131.7
131.7
131.7
131.7
131.7
131.7
131.7
131.7
131.7
131.7
131.7
131.7
131.7
131.7
131.7
131.7
131.7
131.7
131.7
131.7
131.7
131.7
131.7
131.7
131.7
131.7
131.7
131.7
131.7
131.7
131.7
131.7
131.7
131.7
131.7
131.7
131.7
131.7
131.7
131.7
131.7
131.7
131.7
131.7
131.7
131.7
131.7
131.7
131.7
131.7
131.7
131.7
131.7
131.7
131.7
131.7
131.7
131.7
131.7
131.7
131.7
131.7
131.7
131.7
131.7
131.7
131.7
131.7
131.7
131.7
131.7
131.7
131.7
131.7
131.7
131.7
131.7
131.7
131.7
131.7
131.7
131.7
131.7
131.7
131.7
131.7
131.7
131.7
131.7
131.7
131.7
131.7
131.7
131.7
131.7
131.7
131.7
131.7
131.7
131.7
131.7
131.7
131.7
131.7
131.7
131.7
131.7
131.7
131.7
131.7
131.7
131.7
131.7
131.7
131.7
131.7
131.7
131.7
131.7
131.7
131.7
131.7
131.7
131.7
131.7
131.7
131.7
131.7
131.7
131.7
131.7
131.7
131.7
131.7
131.7
131.7
131.7
131.7
131.7
131.7
131.7
131.7
131.7
131.7
131.7
131.7
131.7
131.7
131.7
131.7
131.7
131.7
131.7
131.7
131.7
131.7
131.7
131.7
131.7
131.7
131.7
131.7
131.7
131.7
131.7
131.7
131.7
131.7
131.7
131.7
131.7
131.7
131.7
131.7
131.7
131.7
131.7
131.7
131.7
131.7
131.7
131.7
131.7
131.7
131.7
131.7
131.7
131.7
131.7
131.7
131.7
131.7
131.7
131.7
131.7
131.7
131.7
131.7
131.7
131.7
131.7
131.7
131.7
131.7
131.7
131.7
131.7
131.7
131.7
131.7
131.7
131.7
131.7
131.7
131.7
131.7
131.7
131.7
131.7
131.7
131.7
131.7
131.7
131.7
131.7
131.7
131.7
131.7
131.7
131.7
131.7
131.7
131.7
131.7
131.7
131.7
131.7
131.7
131.7
131.7
131.7
131.7
131.7
131.7
131.7
131.7
131.7
131.7
131.7
131.7
131.7
131.7
131.7
131.7
131.7
131.7
131.7
131.7
131.7
131.7
131.7
131.7
131.7
131.7
131.7
131.7
131.7
131.7
131.7
131.7
131.7
131.7
131.7
131.7
131.7
131.7
131.7
131.7
131.7
131.7
131.7
131.7
131.7
131.7
131.7
131.7
131.7
131.7
131.7
131.7
131.7
131.7
131.7
131.7
131.7
131.7
131.7
131.7
131.7
131.7
131.7
131.7
131.7
131.7
131.7
131.7
131.7
131.7
131.7
131.7
131.7
131.7
131.7
131.7
131.7
131.7
131.7
131.7
131.7
131.7
131.7
131.7
131.7
131.7
131.7
131.7
131.7
131.7
131.7
131.7
131.7
131.7
131.7
131.7
131.7
131.7
131.7
131.7
131.7
131.7
131.7
131.7
131.7
131.7
131.7
131.7
131.7
131.7
131.7
131.7
131.7
131.7
131.7
131.7
131.7
131.7
131.7
131.7
131.7
131.7
131.7
131.7
131.7
131.7
131.7
131.7
131.7
131.7
131.7
131.7
131.7
131.7
131.7
131.7
131.7
131.7
131.7
131.7
131.7
131.7
131.7
131.7
131.7
131.7
131.7
131.7
131.7
131.7
131.7
131.7
131.7
131.7
131.7
131.7
131.7
131.7
131.7
131.7
131.7
131.7
131.7
131.7
131.7
131.7
131.7
131.7
131.7
131.7
131.7
131.7
131.7
131.7
131.7
131.7
131.7
131.7
131.7
131.7
131.7
131.7
131.7
131.7
131.7
131.7
131.7
131.7
131.7
131.7
131.7
131.7
131.7
131.7
131.7
131.7
131.7
131.7
131.7
131.7
131.7
131.7
131.7
313.844
313.844
313.844
313.844
313.844
313.843
313.843
313.842
313.844
337.001
337.002
337.003
337.002
337.001
337
336.999
336.997
337
356.832
356.834
356.835
356.834
356.833
356.831
356.829
356.826
356.829
373.522
373.525
373.526
373.525
373.523
373.522
373.519
373.515
373.517
387.157
387.161
387.162
387.161
387.159
387.157
387.154
387.15
387.149
397.787
397.792
397.793
397.792
397.79
397.788
397.786
397.781
397.777
405.473
405.479
405.48
405.479
405.476
405.474
405.472
405.467
405.46
410.343
410.35
410.352
410.351
410.348
410.345
410.344
410.339
410.328
412.365
412.372
412.374
412.373
412.369
412.367
412.366
412.362
412.347
411.596
411.605
411.606
411.605
411.601
411.599
411.598
411.596
411.578
408.03
408.041
408.043
408.041
408.037
408.034
408.034
408.035
408.015
401.422
401.435
401.437
401.435
401.431
401.428
401.429
401.432
401.41
391.682
391.699
391.701
391.699
391.694
391.691
391.693
391.699
391.672
378.688
378.711
378.713
378.711
378.706
378.703
378.705
378.715
378.683
362.185
362.206
362.208
362.206
362.2
362.197
362.2
362.214
362.175
342.865
342.879
342.881
342.879
342.873
342.87
342.874
342.89
342.851
321.745
321.758
321.76
321.757
321.751
321.748
321.753
321.771
321.736
299.665
299.676
299.678
299.675
299.669
299.666
299.671
299.69
299.661
277.36
277.37
277.372
277.369
277.363
277.36
277.366
277.385
277.363
255.55
255.558
255.56
255.557
255.551
255.548
255.555
255.574
255.559
234.909
234.916
234.918
234.915
234.91
234.907
234.913
234.931
234.922
216.086
216.092
216.094
216.091
216.086
216.083
216.089
216.105
216.1
199.131
199.136
199.137
199.135
199.13
199.128
199.133
199.148
199.144
183.928
183.933
183.934
183.931
183.927
183.925
183.93
183.942
183.936
171.964
171.967
171.967
171.966
171.963
171.962
171.966
171.972
171.96
164.115
164.117
164.118
164.116
164.114
164.113
164.117
164.124
164.107
158.719
158.721
158.721
158.72
158.718
158.717
158.72
158.725
158.711
154.886
154.888
154.888
154.887
154.885
154.884
154.886
154.889
154.878
150.999
151.001
151.001
151
150.998
150.996
150.996
150.996
150.986
146.458
146.46
146.461
146.46
146.457
146.455
146.451
146.442
146.425
142.853
142.855
142.855
142.854
142.852
142.849
142.843
142.83
142.801
139.45
139.452
139.452
139.452
139.449
139.445
139.433
139.407
139.358
136.597
136.598
136.599
136.598
136.597
136.594
136.589
136.578
136.552
134.49
134.491
134.492
134.491
134.491
134.491
134.492
134.496
134.496
133.167
133.168
133.168
133.168
133.168
133.169
133.172
133.179
133.185
132.422
132.422
132.423
132.423
132.423
132.424
132.428
132.437
132.445
132.041
132.041
132.041
132.041
132.041
132.042
132.046
132.052
132.057
131.854
131.854
131.854
131.854
131.854
131.855
131.857
131.86
131.863
131.766
131.766
131.766
131.766
131.766
131.767
131.768
131.77
131.771
131.727
131.727
131.727
131.727
131.727
131.727
131.728
131.729
131.729
131.711
131.711
131.711
131.711
131.711
131.711
131.711
131.711
131.711
131.704
131.704
131.704
131.704
131.704
131.704
131.704
131.704
131.704
131.701
131.701
131.701
131.701
131.701
131.701
131.701
131.701
131.701
131.7
131.7
131.7
131.7
131.7
131.7
131.7
131.7
131.7
131.7
131.7
131.7
131.7
131.7
131.7
131.7
131.7
131.7
131.7
131.7
131.7
131.7
131.7
131.7
131.7
131.7
131.7
131.7
131.7
131.7
131.7
131.7
131.7
131.7
131.7
131.7
131.7
131.7
131.7
131.7
131.7
131.7
131.7
131.7
131.7
131.7
131.7
131.7
131.7
131.7
131.7
131.7
131.7
131.7
131.7
131.7
131.7
131.7
131.7
131.7
131.7
131.7
131.7
131.7
131.7
131.7
131.7
131.7
131.7
131.7
131.7
131.7
131.7
131.7
131.7
131.7
131.7
131.7
131.7
131.7
131.7
131.7
131.7
131.7
131.7
131.7
131.7
131.7
131.7
131.7
131.7
131.7
131.7
131.7
131.7
131.7
131.7
131.7
131.7
131.7
131.7
131.7
131.7
131.7
131.7
131.7
131.7
131.7
131.7
131.7
131.7
131.7
131.7
131.7
131.7
131.7
131.7
131.7
131.7
131.7
131.7
131.7
131.7
131.7
131.7
131.7
131.7
131.7
131.7
131.7
131.7
131.7
131.7
131.7
131.7
131.7
131.7
131.7
131.7
131.7
131.7
131.7
131.7
131.7
131.7
131.7
131.7
131.7
131.7
131.7
131.7
131.7
131.7
131.7
131.7
131.7
131.7
131.7
131.7
131.7
131.7
131.7
131.7
131.7
131.7
131.7
131.7
131.7
131.7
131.7
131.7
131.7
131.7
131.7
131.7
131.7
131.7
131.7
131.7
131.7
131.7
131.7
131.7
131.7
131.7
131.7
131.7
131.7
131.7
131.7
131.7
131.7
131.7
131.7
131.7
131.7
131.7
131.7
131.7
131.7
131.7
131.7
131.7
131.7
131.7
131.7
131.7
131.7
131.7
131.7
131.7
131.7
131.7
131.7
131.7
131.7
131.7
131.7
131.7
131.7
131.7
131.7
131.7
131.7
131.7
131.7
131.7
131.7
131.7
131.7
131.7
131.7
131.7
131.7
131.7
131.7
131.7
131.7
131.7
131.7
131.7
131.7
131.7
131.7
131.7
131.7
131.7
131.7
131.7
131.7
131.7
131.7
131.7
131.7
131.7
131.7
131.7
131.7
131.7
131.7
131.7
131.7
131.7
131.7
131.7
131.7
131.7
131.7
131.7
131.7
131.7
131.7
131.7
131.7
131.7
131.7
131.7
131.7
131.7
131.7
131.7
131.7
131.7
131.7
131.7
131.7
131.7
131.7
131.7
131.7
131.7
131.7
131.7
131.7
131.7
131.7
131.7
131.7
131.7
131.7
131.7
131.7
131.7
131.7
131.7
131.7
131.7
131.7
131.7
131.7
131.7
131.7
131.7
131.7
131.7
131.7
131.7
131.7
131.7
131.7
131.7
131.7
131.7
131.7
131.7
131.7
131.7
131.7
131.7
131.7
131.7
131.7
131.7
131.7
131.7
131.7
131.7
131.7
131.7
131.7
131.7
131.7
131.7
131.7
131.7
131.7
131.7
131.7
131.7
131.7
131.7
131.7
131.7
131.7
131.7
131.7
131.7
131.7
131.7
131.7
131.7
131.7
131.7
131.7
131.7
131.7
131.7
131.7
131.7
131.7
131.7
131.7
131.7
131.7
131.7
131.7
131.7
131.7
131.7
131.7
131.7
131.7
131.7
131.7
131.7
131.7
131.7
131.7
131.7
131.7
131.7
131.7
131.7
131.7
131.7
131.7
131.7
131.7
131.7
131.7
131.7
131.7
131.7
131.7
131.7
131.7
131.7
131.7
131.7
131.7
131.7
131.7
131.7
131.7
131.7
131.7
131.7
131.7
131.7
131.7
131.7
131.7
131.7
131.7
131.7
131.7
131.7
131.7
131.7
131.7
131.7
131.7
131.7
131.7
131.7
131.7
131.7
131.7
131.7
131.7
131.7
131.7
131.7
131.7
131.7
131.7
131.7
131.7
131.7
131.7
131.7
131.7
131.7
131.7
131.7
131.7
131.7
131.7
131.7
131.7
131.7
131.7
131.7
131.7
131.7
131.7
131.7
131.7
131.7
131.7
131.7
131.7
131.7
131.7
131.7
131.7
131.7
131.7
131.7
131.7
131.7
131.7
131.7
131.7
131.7
131.7
131.7
131.7
131.7
131.7
131.7
131.7
131.7
131.7
131.7
131.7
131.7
131.7
131.7
131.7
131.7
131.7
131.7
131.7
310.026
310.026
310.026
310.026
310.027
310.027
310.029
310.033
310.034
327.886
327.886
327.886
327.887
327.888
327.89
327.893
327.904
327.906
344.226
344.226
344.226
344.228
344.23
344.232
344.237
344.252
344.255
359.081
359.081
359.081
359.083
359.086
359.09
359.095
359.114
359.115
372.429
372.43
372.43
372.432
372.436
372.44
372.447
372.466
372.466
384.21
384.21
384.211
384.214
384.218
384.223
384.23
384.25
384.246
394.325
394.325
394.326
394.329
394.334
394.34
394.347
394.365
394.357
402.622
402.622
402.623
402.627
402.633
402.64
402.646
402.663
402.647
408.97
408.97
408.971
408.976
408.983
408.99
408.996
409.009
408.986
413.23
413.23
413.231
413.237
413.246
413.254
413.26
413.268
413.234
415.287
415.288
415.29
415.296
415.306
415.315
415.32
415.325
415.279
415.132
415.133
415.135
415.142
415.153
415.163
415.168
415.167
415.106
412.539
412.542
412.544
412.552
412.565
412.576
412.58
412.574
412.492
407.059
407.064
407.065
407.074
407.088
407.1
407.104
407.093
406.989
398.612
398.615
398.616
398.625
398.64
398.653
398.657
398.642
398.515
387.227
387.223
387.225
387.234
387.249
387.261
387.266
387.248
387.102
373.053
373.048
373.049
373.058
373.073
373.086
373.09
373.073
372.909
356.392
356.388
356.388
356.396
356.411
356.423
356.428
356.412
356.237
337.692
337.687
337.688
337.695
337.708
337.72
337.725
337.712
337.533
317.521
317.516
317.516
317.522
317.534
317.544
317.551
317.541
317.366
296.529
296.525
296.524
296.529
296.539
296.548
296.555
296.549
296.385
275.447
275.443
275.442
275.445
275.453
275.461
275.468
275.466
275.321
255.017
255.013
255.012
255.014
255.02
255.027
255.034
255.035
254.913
235.982
235.978
235.976
235.977
235.981
235.987
235.993
235.996
235.9
218.523
218.52
218.518
218.517
218.52
218.524
218.528
218.532
218.464
203.153
203.15
203.148
203.146
203.147
203.149
203.151
203.151
203.11
190.746
190.744
190.742
190.739
190.739
190.74
190.739
190.736
190.717
180.269
180.267
180.265
180.262
180.261
180.261
180.259
180.247
180.236
171.379
171.378
171.376
171.373
171.371
171.369
171.363
171.342
171.33
165.54
165.54
165.538
165.536
165.534
165.53
165.518
165.486
165.456
160.881
160.881
160.879
160.878
160.876
160.872
160.858
160.824
160.796
157.375
157.373
157.372
157.371
157.374
157.386
157.418
157.481
157.567
153.496
153.487
153.485
153.487
153.501
153.554
153.703
153.996
154.345
149.757
149.748
149.746
149.746
149.758
149.801
149.907
150.058
150.195
145.604
145.595
145.593
145.594
145.607
145.649
145.743
145.853
145.93
141.342
141.335
141.332
141.333
141.343
141.365
141.39
141.372
141.315
137.527
137.526
137.524
137.523
137.524
137.517
137.483
137.401
137.305
134.799
134.802
134.801
134.8
134.794
134.776
134.731
134.657
134.584
133.214
133.217
133.217
133.216
133.209
133.19
133.15
133.097
133.054
132.384
132.385
132.386
132.385
132.38
132.367
132.344
132.317
132.295
131.991
131.992
131.992
131.991
131.988
131.98
131.97
131.958
131.948
131.816
131.816
131.816
131.815
131.813
131.81
131.806
131.801
131.798
131.743
131.743
131.743
131.742
131.741
131.74
131.739
131.738
131.736
131.715
131.715
131.715
131.715
131.714
131.714
131.714
131.713
131.713
131.705
131.705
131.705
131.705
131.705
131.705
131.704
131.704
131.704
131.701
131.701
131.701
131.701
131.701
131.701
131.701
131.701
131.701
131.7
131.7
131.7
131.7
131.7
131.7
131.7
131.7
131.7
131.7
131.7
131.7
131.7
131.7
131.7
131.7
131.7
131.7
131.7
131.7
131.7
131.7
131.7
131.7
131.7
131.7
131.7
131.7
131.7
131.7
131.7
131.7
131.7
131.7
131.7
131.7
131.7
131.7
131.7
131.7
131.7
131.7
131.7
131.7
131.7
131.7
131.7
131.7
131.7
131.7
131.7
131.7
131.7
131.7
131.7
131.7
131.7
131.7
131.7
131.7
131.7
131.7
131.7
131.7
131.7
131.7
131.7
131.7
131.7
131.7
131.7
131.7
131.7
131.7
131.7
131.7
131.7
131.7
131.7
131.7
131.7
131.7
131.7
131.7
131.7
131.7
131.7
131.7
131.7
131.7
131.7
131.7
131.7
131.7
131.7
131.7
131.7
131.7
131.7
131.7
131.7
131.7
131.7
131.7
131.7
131.7
131.7
131.7
131.7
131.7
131.7
131.7
131.7
131.7
131.7
131.7
131.7
131.7
131.7
131.7
131.7
131.7
131.7
131.7
131.7
131.7
131.7
131.7
131.7
131.7
131.7
131.7
131.7
131.7
131.7
131.7
131.7
131.7
131.7
131.7
131.7
131.7
131.7
131.7
131.7
131.7
131.7
131.7
131.7
131.7
131.7
131.7
131.7
131.7
131.7
131.7
131.7
131.7
131.7
131.7
131.7
131.7
131.7
131.7
131.7
131.7
131.7
131.7
131.7
131.7
131.7
131.7
131.7
131.7
131.7
131.7
131.7
131.7
131.7
131.7
131.7
131.7
131.7
131.7
131.7
131.7
131.7
131.7
131.7
131.7
131.7
131.7
131.7
131.7
131.7
131.7
131.7
131.7
131.7
131.7
131.7
131.7
131.7
131.7
131.7
131.7
131.7
131.7
131.7
131.7
131.7
131.7
131.7
131.7
131.7
131.7
131.7
131.7
131.7
131.7
131.7
131.7
131.7
131.7
131.7
131.7
131.7
131.7
131.7
131.7
131.7
131.7
131.7
131.7
131.7
131.7
131.7
131.7
131.7
131.7
131.7
131.7
131.7
131.7
131.7
131.7
131.7
131.7
131.7
131.7
131.7
131.7
131.7
131.7
131.7
131.7
131.7
131.7
131.7
131.7
131.7
131.7
131.7
131.7
131.7
131.7
131.7
131.7
131.7
131.7
131.7
131.7
131.7
131.7
131.7
131.7
131.7
131.7
131.7
131.7
131.7
131.7
131.7
131.7
131.7
131.7
131.7
131.7
131.7
131.7
131.7
131.7
131.7
131.7
131.7
131.7
131.7
131.7
131.7
131.7
131.7
131.7
131.7
131.7
131.7
131.7
131.7
131.7
131.7
131.7
131.7
131.7
131.7
131.7
131.7
131.7
131.7
131.7
131.7
131.7
131.7
131.7
131.7
131.7
131.7
131.7
131.7
131.7
131.7
131.7
131.7
131.7
131.7
131.7
131.7
131.7
131.7
131.7
131.7
131.7
131.7
131.7
131.7
131.7
131.7
131.7
131.7
131.7
131.7
131.7
131.7
131.7
131.7
131.7
131.7
131.7
131.7
131.7
131.7
131.7
131.7
131.7
131.7
131.7
131.7
131.7
131.7
131.7
131.7
131.7
131.7
131.7
131.7
131.7
131.7
131.7
131.7
131.7
131.7
131.7
131.7
131.7
131.7
131.7
131.7
131.7
131.7
131.7
131.7
131.7
131.7
131.7
131.7
131.7
131.7
131.7
131.7
131.7
131.7
131.7
131.7
131.7
131.7
131.7
131.7
131.7
131.7
131.7
131.7
131.7
131.7
131.7
131.7
131.7
131.7
131.7
131.7
131.7
131.7
131.7
131.7
131.7
131.7
131.7
131.7
131.7
131.7
131.7
131.7
131.7
131.7
131.7
131.7
131.7
131.7
131.7
131.7
131.7
131.7
131.7
131.7
131.7
131.7
131.7
131.7
131.7
131.7
131.7
131.7
131.7
131.7
131.7
131.7
131.7
131.7
131.7
131.7
131.7
131.7
131.7
131.7
131.7
131.7
131.7
131.7
131.7
131.7
131.7
131.7
131.7
131.7
131.7
131.7
131.7
131.7
131.7
131.7
308.072
308.071
308.071
308.069
308.068
308.066
308.066
308.069
308.062
322.844
322.843
322.841
322.837
322.833
322.829
322.828
322.835
322.819
336.717
336.716
336.713
336.707
336.7
336.695
336.693
336.703
336.678
349.686
349.685
349.682
349.673
349.664
349.657
349.655
349.668
349.636
361.719
361.719
361.714
361.704
361.693
361.685
361.681
361.696
361.659
372.762
372.762
372.757
372.746
372.733
372.723
372.719
372.736
372.693
382.742
382.743
382.738
382.726
382.712
382.7
382.695
382.713
382.666
391.568
391.569
391.564
391.551
391.536
391.523
391.517
391.535
391.484
399.124
399.127
399.121
399.108
399.092
399.078
399.072
399.089
399.034
405.274
405.278
405.273
405.26
405.243
405.228
405.22
405.237
405.178
409.855
409.86
409.856
409.843
409.825
409.809
409.801
409.816
409.752
412.717
412.724
412.72
412.708
412.69
412.674
412.665
412.677
412.607
413.798
413.806
413.804
413.793
413.775
413.758
413.747
413.757
413.68
413.029
413.038
413.037
413.027
413.009
412.993
412.981
412.988
412.9
410.125
410.135
410.135
410.128
410.113
410.097
410.084
410.087
409.984
404.78
404.788
404.79
404.786
404.776
404.762
404.748
404.748
404.627
396.868
396.877
396.88
396.879
396.873
396.861
396.848
396.843
396.703
386.322
386.332
386.338
386.341
386.338
386.329
386.316
386.309
386.148
373.158
373.169
373.176
373.184
373.185
373.179
373.167
373.157
372.975
357.507
357.518
357.527
357.538
357.543
357.541
357.531
357.519
357.319
339.654
339.665
339.675
339.69
339.698
339.7
339.692
339.679
339.465
320.062
320.072
320.084
320.1
320.112
320.117
320.111
320.098
319.878
299.375
299.384
299.396
299.415
299.429
299.436
299.433
299.421
299.205
278.376
278.384
278.396
278.415
278.431
278.44
278.44
278.429
278.227
257.79
257.797
257.808
257.827
257.844
257.853
257.855
257.848
257.67
238.284
238.29
238.301
238.318
238.334
238.344
238.348
238.342
238.195
220.686
220.691
220.7
220.716
220.731
220.742
220.748
220.749
220.643
205.602
205.606
205.615
205.629
205.642
205.651
205.656
205.656
205.585
193.311
193.314
193.321
193.334
193.347
193.359
193.377
193.399
193.392
183.618
183.621
183.627
183.638
183.648
183.652
183.65
183.638
183.613
176.382
176.382
176.387
176.398
176.413
176.44
176.499
176.606
176.72
170.319
170.32
170.326
170.334
170.343
170.352
170.371
170.425
170.518
165.824
165.827
165.831
165.837
165.84
165.824
165.751
165.61
165.473
162.46
162.465
162.47
162.473
162.466
162.416
162.259
161.988
161.763
160.19
160.202
160.207
160.208
160.187
160.091
159.835
159.45
159.135
157.512
157.548
157.556
157.543
157.474
157.269
156.851
156.383
156.159
153.236
153.282
153.295
153.27
153.176
152.985
152.762
152.678
152.834
148.799
148.823
148.833
148.81
148.735
148.605
148.48
148.509
148.733
143.332
143.325
143.321
143.308
143.284
143.294
143.403
143.556
143.712
138.38
138.368
138.357
138.349
138.369
138.463
138.664
138.829
138.914
134.966
134.957
134.947
134.944
134.983
135.076
135.224
135.342
135.387
133.108
133.099
133.095
133.113
133.158
133.216
133.292
133.35
133.361
132.255
132.253
132.257
132.277
132.298
132.319
132.347
132.371
132.379
131.905
131.905
131.909
131.916
131.924
131.932
131.942
131.952
131.955
131.77
131.77
131.771
131.774
131.777
131.78
131.783
131.786
131.786
131.722
131.722
131.723
131.723
131.724
131.725
131.726
131.727
131.727
131.707
131.707
131.707
131.707
131.707
131.707
131.708
131.708
131.708
131.702
131.702
131.702
131.702
131.702
131.702
131.702
131.702
131.702
131.7
131.7
131.7
131.7
131.7
131.7
131.7
131.701
131.701
131.7
131.7
131.7
131.7
131.7
131.7
131.7
131.7
131.7
131.7
131.7
131.7
131.7
131.7
131.7
131.7
131.7
131.7
131.7
131.7
131.7
131.7
131.7
131.7
131.7
131.7
131.7
131.7
131.7
131.7
131.7
131.7
131.7
131.7
131.7
131.7
131.7
131.7
131.7
131.7
131.7
131.7
131.7
131.7
131.7
131.7
131.7
131.7
131.7
131.7
131.7
131.7
131.7
131.7
131.7
131.7
131.7
131.7
131.7
131.7
131.7
131.7
131.7
131.7
131.7
131.7
131.7
131.7
131.7
131.7
131.7
131.7
131.7
131.7
131.7
131.7
131.7
131.7
131.7
131.7
131.7
131.7
131.7
131.7
131.7
131.7
131.7
131.7
131.7
131.7
131.7
131.7
131.7
131.7
131.7
131.7
131.7
131.7
131.7
131.7
131.7
131.7
131.7
131.7
131.7
131.7
131.7
131.7
131.7
131.7
131.7
131.7
131.7
131.7
131.7
131.7
131.7
131.7
131.7
131.7
131.7
131.7
131.7
131.7
131.7
131.7
131.7
131.7
131.7
131.7
131.7
131.7
131.7
131.7
131.7
131.7
131.7
131.7
131.7
131.7
131.7
131.7
131.7
131.7
131.7
131.7
131.7
131.7
131.7
131.7
131.7
131.7
131.7
131.7
131.7
131.7
131.7
131.7
131.7
131.7
131.7
131.7
131.7
131.7
131.7
131.7
131.7
131.7
131.7
131.7
131.7
131.7
131.7
131.7
131.7
131.7
131.7
131.7
131.7
131.7
131.7
131.7
131.7
131.7
131.7
131.7
131.7
131.7
131.7
131.7
131.7
131.7
131.7
131.7
131.7
131.7
131.7
131.7
131.7
131.7
131.7
131.7
131.7
131.7
131.7
131.7
131.7
131.7
131.7
131.7
131.7
131.7
131.7
131.7
131.7
131.7
131.7
131.7
131.7
131.7
131.7
131.7
131.7
131.7
131.7
131.7
131.7
131.7
131.7
131.7
131.7
131.7
131.7
131.7
131.7
131.7
131.7
131.7
131.7
131.7
131.7
131.7
131.7
131.7
131.7
131.7
131.7
131.7
131.7
131.7
131.7
131.7
131.7
131.7
131.7
131.7
131.7
131.7
131.7
131.7
131.7
131.7
131.7
131.7
131.7
131.7
131.7
131.7
131.7
131.7
131.7
131.7
131.7
131.7
131.7
131.7
131.7
131.7
131.7
131.7
131.7
131.7
131.7
131.7
131.7
131.7
131.7
131.7
131.7
131.7
131.7
131.7
131.7
131.7
131.7
131.7
131.7
131.7
131.7
131.7
131.7
131.7
131.7
131.7
131.7
131.7
131.7
131.7
131.7
131.7
131.7
131.7
131.7
131.7
131.7
131.7
131.7
131.7
131.7
131.7
131.7
131.7
131.7
131.7
131.7
131.7
131.7
131.7
131.7
131.7
131.7
131.7
131.7
131.7
131.7
131.7
131.7
131.7
131.7
131.7
131.7
131.7
131.7
131.7
131.7
131.7
131.7
131.7
131.7
131.7
131.7
131.7
131.7
131.7
131.7
131.7
131.7
131.7
131.7
131.7
131.7
131.7
131.7
131.7
131.7
131.7
131.7
131.7
131.7
131.7
131.7
131.7
131.7
131.7
131.7
131.7
131.7
131.7
131.7
131.7
131.7
131.7
131.7
131.7
131.7
131.7
131.7
131.7
131.7
131.7
131.7
131.7
131.7
131.7
131.7
131.7
131.7
131.7
131.7
131.7
131.7
131.7
131.7
131.7
131.7
131.7
131.7
131.7
131.7
131.7
131.7
131.7
131.7
131.7
131.7
131.7
131.7
131.7
131.7
131.7
131.7
131.7
131.7
131.7
131.7
131.7
131.7
131.7
131.7
131.7
131.7
131.7
131.7
131.7
131.7
131.7
131.7
131.7
131.7
131.7
131.7
131.7
131.7
131.7
131.7
131.7
131.7
131.7
131.7
131.7
306.737
306.736
306.738
306.74
306.743
306.746
306.747
306.75
306.749
319.285
319.282
319.286
319.293
319.301
319.308
319.312
319.319
319.317
331.27
331.267
331.273
331.283
331.296
331.306
331.313
331.325
331.321
342.676
342.672
342.68
342.693
342.71
342.723
342.731
342.748
342.744
353.468
353.463
353.472
353.488
353.507
353.523
353.533
353.553
353.549
363.599
363.593
363.603
363.621
363.642
363.66
363.671
363.695
363.691
373.01
373.004
373.015
373.034
373.057
373.075
373.087
373.114
373.11
381.632
381.625
381.637
381.656
381.679
381.698
381.71
381.739
381.736
389.379
389.372
389.384
389.403
389.426
389.444
389.456
389.487
389.483
396.156
396.149
396.161
396.179
396.2
396.217
396.228
396.259
396.255
401.848
401.841
401.852
401.869
401.888
401.902
401.912
401.944
401.938
406.322
406.316
406.326
406.34
406.356
406.368
406.376
406.407
406.399
409.425
409.419
409.428
409.439
409.452
409.459
409.465
409.494
409.482
410.995
410.99
410.998
411.006
411.013
411.015
411.018
411.044
411.026
411.077
411.074
411.08
411.083
411.085
411.083
411.083
411.106
411.08
409.52
409.518
409.522
409.522
409.518
409.51
409.506
409.525
409.489
405.921
405.921
405.923
405.918
405.906
405.892
405.883
405.897
405.843
400.114
400.117
400.117
400.106
400.087
400.065
400.052
400.059
399.984
391.966
391.972
391.969
391.952
391.926
391.898
391.88
391.881
391.779
381.369
381.379
381.374
381.352
381.317
381.283
381.262
381.257
381.123
368.278
368.29
368.283
368.257
368.215
368.177
368.153
368.142
367.971
352.742
352.757
352.749
352.719
352.672
352.631
352.606
352.589
352.379
334.959
334.975
334.967
334.935
334.885
334.842
334.818
334.796
334.547
315.312
315.329
315.321
315.288
315.237
315.194
315.172
315.147
314.865
294.4
294.417
294.409
294.377
294.327
294.287
294.268
294.243
293.937
272.999
273.015
273.009
272.979
272.932
272.897
272.882
272.858
272.543
252.035
252.049
252.043
252.017
251.977
251.947
251.937
251.919
251.613
232.51
232.521
232.516
232.494
232.46
232.436
232.429
232.413
232.13
215.365
215.373
215.369
215.351
215.325
215.308
215.307
215.297
215.05
200.92
200.926
200.922
200.908
200.886
200.869
200.855
200.819
200.573
189.371
189.376
189.372
189.361
189.344
189.329
189.312
189.257
189.026
180.567
180.573
180.57
180.559
180.543
180.521
180.488
180.437
180.267
174.226
174.236
174.233
174.222
174.204
174.177
174.125
173.944
173.791
169.93
169.941
169.938
169.926
169.906
169.879
169.851
169.933
169.837
166.735
166.752
166.75
166.734
166.702
166.645
166.561
166.463
166.47
163.605
163.613
163.611
163.604
163.577
163.548
163.535
163.563
163.687
160.997
160.985
160.981
160.986
161.024
161.185
161.52
161.587
161.548
158.898
158.87
158.859
158.883
158.999
159.326
159.939
160.213
160.134
156.165
156.151
156.14
156.221
156.486
156.981
157.775
158.196
158.197
152.867
152.887
152.907
153.078
153.388
153.614
153.688
153.962
154.217
148.158
148.159
148.237
148.595
148.828
148.772
148.494
148.432
148.562
142.613
142.68
142.84
142.98
142.855
142.554
142.189
142.108
142.311
137.724
137.771
137.775
137.564
137.359
137.224
137.092
137.047
137.131
134.42
134.406
134.346
134.195
134.104
134.055
134.001
133.972
134.008
132.768
132.755
132.728
132.66
132.605
132.575
132.557
132.555
132.579
132.079
132.073
132.06
132.036
132.016
132.005
132
132
132.008
131.819
131.817
131.813
131.805
131.799
131.796
131.794
131.794
131.795
131.734
131.733
131.732
131.73
131.728
131.727
131.727
131.727
131.727
131.709
131.709
131.708
131.708
131.707
131.707
131.707
131.707
131.707
131.702
131.702
131.702
131.702
131.702
131.702
131.702
131.702
131.702
131.7
131.7
131.7
131.7
131.7
131.7
131.7
131.7
131.7
131.7
131.7
131.7
131.7
131.7
131.7
131.7
131.7
131.7
131.7
131.7
131.7
131.7
131.7
131.7
131.7
131.7
131.7
131.7
131.7
131.7
131.7
131.7
131.7
131.7
131.7
131.7
131.7
131.7
131.7
131.7
131.7
131.7
131.7
131.7
131.7
131.7
131.7
131.7
131.7
131.7
131.7
131.7
131.7
131.7
131.7
131.7
131.7
131.7
131.7
131.7
131.7
131.7
131.7
131.7
131.7
131.7
131.7
131.7
131.7
131.7
131.7
131.7
131.7
131.7
131.7
131.7
131.7
131.7
131.7
131.7
131.7
131.7
131.7
131.7
131.7
131.7
131.7
131.7
131.7
131.7
131.7
131.7
131.7
131.7
131.7
131.7
131.7
131.7
131.7
131.7
131.7
131.7
131.7
131.7
131.7
131.7
131.7
131.7
131.7
131.7
131.7
131.7
131.7
131.7
131.7
131.7
131.7
131.7
131.7
131.7
131.7
131.7
131.7
131.7
131.7
131.7
131.7
131.7
131.7
131.7
131.7
131.7
131.7
131.7
131.7
131.7
131.7
131.7
131.7
131.7
131.7
131.7
131.7
131.7
131.7
131.7
131.7
131.7
131.7
131.7
131.7
131.7
131.7
131.7
131.7
131.7
131.7
131.7
131.7
131.7
131.7
131.7
131.7
131.7
131.7
131.7
131.7
131.7
131.7
131.7
131.7
131.7
131.7
131.7
131.7
131.7
131.7
131.7
131.7
131.7
131.7
131.7
131.7
131.7
131.7
131.7
131.7
131.7
131.7
131.7
131.7
131.7
131.7
131.7
131.7
131.7
131.7
131.7
131.7
131.7
131.7
131.7
131.7
131.7
131.7
131.7
131.7
131.7
131.7
131.7
131.7
131.7
131.7
131.7
131.7
131.7
131.7
131.7
131.7
131.7
131.7
131.7
131.7
131.7
131.7
131.7
131.7
131.7
131.7