/*--------------------------------*- C++ -*----------------------------------*\
  =========                 |
  \\      /  F ield         | OpenFOAM: The Open Source CFD Toolbox
   \\    /   O peration     | Website:  https://openfoam.org
    \\  /    A nd           | Version:  7
     \\/     M anipulation  |
\*---------------------------------------------------------------------------*/
FoamFile
{
    version     2.0;
    format      ascii;
    class       volVectorField;
    location    "0.00107";
    object      wallShearStressMean;
}
// * * * * * * * * * * * * * * * * * * * * * * * * * * * * * * * * * * * * * //

dimensions      [1 -1 -2 0 0 0 0];

internalField   uniform (0 0 0);

boundaryField
{
    FRONT
    {
        type            cyclic;
    }
    BACK
    {
        type            cyclic;
    }
    INLET
    {
        type            calculated;
        value           uniform (0 0 0);
    }
    OUTLET
    {
        type            calculated;
        value           uniform (0 0 0);
    }
    TOP
    {
        type            calculated;
        value           uniform (0 0 0);
    }
    BOTTOM
    {
        type            calculated;
        value           nonuniform List<vector> 
5365
(
(-466.209 -50.6448 0.0456509)
(-467.88 -50.9528 0.0465854)
(-469.351 -51.2181 0.0440194)
(-470.505 -51.4243 0.0311833)
(-471.239 -51.5539 0.0155723)
(-471.489 -51.5978 0.000559335)
(-471.241 -51.5534 -0.0149855)
(-470.508 -51.4236 -0.0308385)
(-469.354 -51.2173 -0.0437141)
(-467.884 -50.952 -0.0472782)
(-466.208 -50.6449 -0.0464743)
(-135.068 -1.21869 -0.188829)
(-135.83 -1.23932 -0.211651)
(-136.471 -1.2534 -0.225511)
(-136.986 -1.26647 -0.193068)
(-137.328 -1.27719 -0.0999462)
(-137.402 -1.27887 -0.00779464)
(-137.321 -1.27867 0.0923341)
(-136.979 -1.26805 0.189404)
(-136.463 -1.25528 0.222162)
(-135.821 -1.24176 0.210266)
(-135.064 -1.22073 0.187218)
(-96.0446 -0.203943 -0.126297)
(-96.5533 -0.218083 -0.0934199)
(-97.0558 -0.216309 -0.0539562)
(-97.4663 -0.212278 -0.0414951)
(-97.7256 -0.210608 -0.0199124)
(-97.808 -0.208087 0.000444721)
(-97.7329 -0.209833 0.0220331)
(-97.4791 -0.210935 0.0476713)
(-97.075 -0.213719 0.0628024)
(-96.5802 -0.214116 0.105176)
(-96.0791 -0.198484 0.136137)
(-77.5206 -0.105771 -0.128215)
(-77.8732 -0.115974 -0.107154)
(-78.2352 -0.128922 -0.0969078)
(-78.5545 -0.133863 -0.0573235)
(-78.7727 -0.138046 -0.0229353)
(-78.8495 -0.137548 -0.00147084)
(-78.7797 -0.137615 0.017154)
(-78.5582 -0.13436 0.0444352)
(-78.229 -0.131346 0.081696)
(-77.8536 -0.121312 0.0921724)
(-77.4861 -0.114513 0.115123)
(-65.5362 -0.0768876 0.0181007)
(-65.9043 -0.0676352 0.0259519)
(-66.2315 -0.0732975 -0.0345067)
(-66.4939 -0.0700647 -0.0335955)
(-66.6599 -0.0732453 -0.0196684)
(-66.7153 -0.072501 -0.000602876)
(-66.6547 -0.0746857 0.0188676)
(-66.4832 -0.0722918 0.0369219)
(-66.2187 -0.0742229 0.0405959)
(-65.8923 -0.0658168 -0.0199697)
(-65.5279 -0.0714935 -0.0122525)
(-57.3549 -0.0546611 0.00370606)
(-57.7078 -0.0505506 0.0342166)
(-58.0294 -0.0586165 -0.0101503)
(-58.2948 -0.0513064 0.0119609)
(-58.4694 -0.0490046 0.00955124)
(-58.5355 -0.0465837 0.0100627)
(-58.4857 -0.0474883 0.010205)
(-58.3306 -0.0467533 0.00641366)
(-58.0812 -0.0517633 0.018026)
(-57.7711 -0.0432345 -0.0285916)
(-57.4316 -0.0473545 0.00907501)
(-51.6312 -0.0285902 -0.0644811)
(-51.8889 -0.0300981 -0.0377506)
(-52.1306 -0.0446188 -0.0771419)
(-52.3349 -0.0454408 -0.0479698)
(-52.4716 -0.049897 -0.0257508)
(-52.5249 -0.0470782 -0.00683138)
(-52.4846 -0.049284 0.0111554)
(-52.3523 -0.0456412 0.0266578)
(-52.1395 -0.0485978 0.0529011)
(-51.8856 -0.039132 0.0203916)
(-51.6236 -0.0408763 0.054017)
(-47.353 -0.0231022 -0.0656155)
(-47.5499 -0.0202918 -0.0302001)
(-47.7324 -0.0290386 -0.06813)
(-47.8784 -0.026533 -0.0542673)
(-47.9612 -0.0311445 -0.0304971)
(-47.9883 -0.0295123 -0.0104488)
(-47.9483 -0.0341592 0.0114528)
(-47.845 -0.0315788 0.0312541)
(-47.6741 -0.0356783 0.0468747)
(-47.4685 -0.0260405 0.01046)
(-47.2541 -0.0265271 0.0377625)
(-43.7926 -0.0201938 -0.00727588)
(-44.0035 -0.0133519 0.0429734)
(-44.2086 -0.0182506 0.0108165)
(-44.3767 -0.0114225 0.0185307)
(-44.4772 -0.0108542 0.00750452)
(-44.5101 -0.0085557 0.00443408)
(-44.468 -0.0111685 0.00212143)
(-44.3606 -0.00992435 -0.0052789)
(-44.1884 -0.0137923 0.00696538)
(-43.9823 -0.00407095 -0.0260663)
(-43.7704 -0.00685952 0.0177187)
(-40.7933 -0.0134846 0.0192916)
(-41.0237 -0.0061427 0.0683362)
(-41.2546 -0.0146857 0.025174)
(-41.4488 -0.0134712 0.0297987)
(-41.5752 -0.0153686 0.0136709)
(-41.6216 -0.012912 0.0101683)
(-41.5864 -0.0117482 0.00321213)
(-41.4728 -0.00639021 -0.0108273)
(-41.2928 -0.00688903 0.00108543)
(-41.0807 0.00259551 -0.0330647)
(-40.8689 -0.00485359 0.0124027)
(-38.4213 -0.0138549 -0.0146023)
(-38.6209 -0.00748257 0.0167269)
(-38.8208 -0.0155117 -0.0245748)
(-38.9847 -0.0134611 -0.0213471)
(-39.0817 -0.021538 -0.00983193)
(-39.1264 -0.0181177 0.00245358)
(-39.1 -0.019158 0.0111891)
(-39.0076 -0.0114913 0.0128434)
(-38.8486 -0.013123 0.0206139)
(-38.6576 -0.00616618 -0.0142423)
(-38.4658 -0.01583 0.0225675)
(-36.5162 -0.0124573 -0.0373592)
(-36.6681 -0.00900648 -0.0137732)
(-36.8187 -0.0151326 -0.0407242)
(-36.9421 -0.00574306 -0.0333043)
(-37.002 -0.00996384 -0.0201417)
(-37.0325 -0.00642078 -0.00867411)
(-37.0029 -0.00996022 0.00213263)
(-36.9274 -0.00662389 0.0100984)
(-36.7894 -0.013773 0.0197167)
(-36.6234 -0.00955986 -0.00637316)
(-36.4576 -0.0188114 0.0285508)
(-34.7671 -0.00454558 -0.0103726)
(-34.9175 -0.00157006 0.0306737)
(-35.0701 -0.010251 0.00980959)
(-35.2022 -0.000572604 0.0164507)
(-35.2725 -6.87234e-05 0.00435621)
(-35.2976 0.00539955 -0.00429514)
(-35.2594 0.002379 -0.0092328)
(-35.1706 0.00139578 -0.0144367)
(-35.027 -0.00759721 -0.00324918)
(-34.865 -0.00277497 -0.0248129)
(-34.7101 -0.00890906 0.0103776)
(-33.1204 -0.00111177 0.0175583)
(-33.2949 0.00555811 0.0637754)
(-33.4811 -0.00446732 0.0432416)
(-33.648 -0.000595084 0.0513157)
(-33.7518 -0.00321314 0.03106)
(-33.7884 0.00217628 0.00618896)
(-33.748 5.72591e-05 -0.00738156)
(-33.6435 -0.000104497 -0.0222556)
(-33.4897 -0.00500497 -0.0134462)
(-33.3209 0.00194216 -0.0402353)
(-33.1614 -0.00221651 -0.0110734)
(-31.7373 -0.00621833 -0.00424763)
(-31.896 0.0025268 0.0276629)
(-32.0745 -0.0046904 0.00865986)
(-32.2404 -0.00336637 0.0220436)
(-32.3527 -0.00992768 0.0160148)
(-32.3983 -0.00774747 0.00844824)
(-32.3669 -0.00938965 0.00328492)
(-32.2696 -0.00718116 -0.00499315)
(-32.1244 -0.00924819 0.0022612)
(-31.9624 -0.00169471 -0.0261083)
(-31.8071 -0.00610267 -0.00150578)
(-30.6259 -0.00668416 -0.0241594)
(-30.7479 -0.000958689 -0.00710787)
(-30.8828 -0.00690022 -0.0317197)
(-31.0089 -0.00313341 -0.0196822)
(-31.0926 -0.00750814 -0.0151575)
(-31.1286 -0.00676064 -0.00372365)
(-31.1034 -0.0097516 0.00375114)
(-31.0253 -0.00795234 0.007133)
(-30.9005 -0.0110243 0.0148145)
(-30.7571 -0.00356288 -0.0125367)
(-30.6168 -0.00767944 0.0108927)
(-29.6157 -0.000464292 -0.0130545)
(-29.7288 0.002577 0.0125861)
(-29.8451 -0.0044761 -0.0188863)
(-29.9468 0.00144405 -0.0175575)
(-30.0059 0.000211949 -0.0196679)
(-30.0282 0.00208183 -0.00985069)
(-30.001 -0.00224718 -0.00173215)
(-29.9315 -0.0027082 -0.00124968)
(-29.8157 -0.00730001 0.00487531)
(-29.6822 0.000631802 -0.0217608)
(-29.5538 -0.00278504 0.0065503)
(-28.6079 0.00399402 0.00939854)
(-28.7419 0.00897301 0.0459593)
(-28.8778 0.000597416 0.0150094)
(-28.9917 0.00542239 0.011625)
(-29.0549 0.00348843 0.000649621)
(-29.0768 0.00575471 -0.00276772)
(-29.0472 0.00095208 -0.00466257)
(-28.9741 0.000936638 -0.01206)
(-28.8534 -0.00278974 -0.00982429)
(-28.7158 0.00664944 -0.035507)
(-28.5876 0.00189645 -0.000915147)
(-27.6823 -0.00183215 0.00465822)
(-27.8217 0.00805966 0.0455403)
(-27.9733 0.0019583 0.0213313)
(-28.1051 0.00408463 0.0236852)
(-28.1855 -0.000753589 0.0119631)
(-28.2143 -0.000175023 0.00299128)
(-28.1868 -0.00359384 -0.00377777)
(-28.1099 -0.000350667 -0.0135288)
(-27.9832 -0.00184746 -0.0111794)
(-27.8402 0.00703136 -0.0327169)
(-27.7123 -2.61917e-05 0.00789095)
(-26.9208 -0.00902927 -0.0148172)
(-27.0394 0.00189409 0.0188323)
(-27.1783 -0.00100247 0.000762715)
(-27.3057 0.00146462 0.0106653)
(-27.3888 -0.00508459 0.00646915)
(-27.4216 -0.00506892 0.00172525)
(-27.397 -0.00686273 -0.00210331)
(-27.3224 -0.00124354 -0.00653152)
(-27.2002 -0.00206859 0.000127987)
(-27.0645 0.0054283 -0.0174651)
(-26.9464 -0.00261741 0.0213621)
(-26.2931 -0.00902686 -0.0262061)
(-26.3878 -0.00211367 0.00362719)
(-26.5022 -0.00522363 -0.0135441)
(-26.6109 -0.0003976 -0.00438931)
(-26.6814 -0.00523238 -0.00348756)
(-26.7105 -0.00379785 -0.00234523)
(-26.6868 -0.0050144 -0.00035362)
(-26.6188 1.67289e-05 -0.000953135)
(-26.508 -0.00186698 0.00636732)
(-26.3867 0.00404102 -0.00984866)
(-26.2837 -0.00311714 0.0266361)
(-25.733 -0.000945833 -0.0201378)
(-25.8195 0.00111531 0.00917862)
(-25.9201 -0.00563508 -0.0111375)
(-26.0155 0.000678482 -0.00657262)
(-26.0736 -0.000826564 -0.00614189)
(-26.0965 0.00272003 -0.00392941)
(-26.0721 0.000933663 0.00101271)
(-26.0097 0.00350497 0.000979087)
(-25.9087 -0.000230476 0.00665209)
(-25.7991 0.00515644 -0.0119875)
(-25.7062 6.81936e-05 0.0209608)
(-25.2003 0.0066518 -0.00528739)
(-25.2939 0.00634815 0.0282781)
(-25.3977 -0.00333912 0.00459921)
(-25.4926 0.00201826 0.00445176)
(-25.5485 0.00286479 -0.001354)
(-25.5686 0.00709539 -0.00154293)
(-25.5445 0.00478702 0.00229867)
(-25.4838 0.00473952 -0.00270067)
(-25.3857 -0.000369847 -0.00177192)
(-25.2792 0.0057166 -0.0239264)
(-25.1877 0.00230861 0.0110657)
(-24.6971 0.00804664 0.00710019)
(-24.8016 0.00962988 0.0413911)
(-24.9158 -0.000681099 0.0159806)
(-25.0187 0.00289996 0.0148057)
(-25.0809 0.0035084 0.00471212)
(-25.1033 0.00721557 0.00165568)
(-25.0804 0.00439377 0.00249103)
(-25.0188 0.0038326 -0.0066307)
(-24.9187 -0.000526302 -0.00836428)
(-24.8085 0.00744889 -0.0320431)
(-24.7121 0.00436317 0.00423268)
(-24.241 0.000412182 0.00974719)
(-24.3493 0.00668506 0.0448688)
(-24.4712 -0.000728298 0.0210122)
(-24.5817 0.00166325 0.0202399)
(-24.6517 0.000230611 0.00801681)
(-24.6776 0.00234667 0.0030057)
(-24.657 0.000227835 0.000145076)
(-24.5939 0.00162417 -0.0124883)
(-24.4892 -0.000626749 -0.0146623)
(-24.3724 0.0075576 -0.0367872)
(-24.2712 0.00290548 0.00316852)
(-23.8458 -0.00771648 0.000624697)
(-23.9486 0.00162028 0.0319713)
(-24.0692 -0.00257037 0.010986)
(-24.1814 0.000558188 0.0132092)
(-24.255 -0.00273119 0.00465917)
(-24.2832 -0.00187932 0.00151466)
(-24.264 -0.00296631 -0.00143336)
(-24.199 0.00130816 -0.0117144)
(-24.0916 0.000714277 -0.00947504)
(-23.9724 0.00860134 -0.0285922)
(-23.8711 0.00295337 0.00914721)
(-23.5004 -0.0154559 -0.00612258)
(-23.5911 -0.00603677 0.0265252)
(-23.7046 -0.00777776 0.0071396)
(-23.8139 -0.00306325 0.00952808)
(-23.8871 -0.00618379 0.00216444)
(-23.9158 -0.00544724 -0.000858901)
(-23.8966 -0.00529934 -0.0049462)
(-23.8293 0.000565637 -0.014879)
(-23.7203 -0.000170246 -0.0110408)
(-23.6025 0.00613935 -0.0287876)
(-23.5072 -0.000568162 0.0115543)
(-23.2097 -0.00458828 -0.0289858)
(-23.2918 0.00101586 -0.000997493)
(-23.3928 -0.00457233 -0.0169743)
(-23.4902 -0.00116043 -0.00959787)
(-23.5545 -0.00525111 -0.00702344)
(-23.5799 -0.0041046 -0.00370305)
(-23.5605 -0.00278635 -0.00071251)
(-23.4966 0.00501717 -0.000325498)
(-23.3949 0.00580379 0.0103673)
(-23.2864 0.0142489 -0.0046462)
(-23.1974 0.00806744 0.0296641)
(-22.8953 -0.0192662 -0.0274118)
(-22.9844 -0.00711394 0.0159068)
(-23.0853 -0.0107016 0.000780383)
(-23.185 -0.00439586 0.00134978)
(-23.2495 -0.00546231 -0.00291258)
(-23.2734 -0.00289861 -0.00372052)
(-23.2496 -0.00192221 -0.00682246)
(-23.1807 0.00245262 -0.0102197)
(-23.0742 -0.00170381 -0.00635999)
(-22.9664 0.00147132 -0.0194544)
(-22.8729 -0.0131451 0.026164)
(-463.768 -50.1858 -0.00035083)
(-463.767 -50.1858 -0.000330533)
(-463.767 -50.1858 -0.000368996)
(-463.767 -50.1857 -0.000335415)
(-463.767 -50.1856 -0.000309223)
(-463.767 -50.1857 -0.000127689)
(-463.766 -50.1859 0.000303128)
(-463.759 -50.1861 0.0060599)
(-463.634 -50.1838 0.0568577)
(-134.462 -1.22734 0.00424362)
(-134.464 -1.22691 0.0051918)
(-134.464 -1.22692 0.00487657)
(-134.463 -1.22689 0.00455565)
(-134.464 -1.22664 0.00410918)
(-134.465 -1.22627 0.0025976)
(-134.465 -1.22587 0.00278045)
(-134.465 -1.22507 0.0157881)
(-134.515 -1.2291 0.151642)
(-95.6164 -0.202292 -0.00303414)
(-95.6135 -0.202412 -0.00757169)
(-95.6082 -0.203175 -0.0113717)
(-95.6006 -0.204019 -0.013915)
(-95.589 -0.205786 -0.0116738)
(-95.5814 -0.206916 -0.00366124)
(-95.5845 -0.207372 0.00283487)
(-95.6176 -0.202373 -0.00263908)
(-95.6701 -0.219536 0.0913153)
(-77.1509 -0.116896 0.00287784)
(-77.1533 -0.117379 0.014852)
(-77.168 -0.115726 0.0261551)
(-77.1919 -0.112851 0.0314042)
(-77.216 -0.109587 0.0253079)
(-77.2342 -0.106785 0.00669121)
(-77.2481 -0.105691 -0.0135089)
(-77.2729 -0.098503 -0.0520018)
(-77.2709 -0.123808 0.0328579)
(-65.2626 -0.0782233 0.00301625)
(-65.2666 -0.0773039 -0.00749534)
(-65.2655 -0.0788181 -0.0166015)
(-65.262 -0.0813549 -0.0195536)
(-65.2627 -0.0838111 -0.0138582)
(-65.2685 -0.0854365 -0.0094342)
(-65.2795 -0.0861844 -0.00897029)
(-65.3 -0.0821017 -0.0147118)
(-65.3074 -0.0947686 0.0791933)
(-57.2215 -0.0479671 -0.0132576)
(-57.207 -0.0489104 -0.0234179)
(-57.1785 -0.0504632 -0.0288053)
(-57.1429 -0.0520242 -0.0286738)
(-57.111 -0.0534726 -0.0274004)
(-57.0905 -0.0550869 -0.0229559)
(-57.0893 -0.0561396 -0.0121268)
(-57.1156 -0.0510926 -0.00803734)
(-57.1418 -0.0626661 0.0752273)
(-51.4212 -0.0306298 -0.00555245)
(-51.4105 -0.0320551 0.016457)
(-51.4121 -0.0310863 0.035087)
(-51.4245 -0.0278572 0.045475)
(-51.437 -0.025339 0.0339359)
(-51.4416 -0.0232347 0.0116061)
(-51.4461 -0.0231704 -0.00227689)
(-51.4636 -0.0188271 -0.0219667)
(-51.4775 -0.0343632 0.0401562)
(-47.0012 -0.0288297 0.0112291)
(-47.011 -0.0287961 0.0237548)
(-47.0438 -0.0277685 0.033989)
(-47.0921 -0.0253576 0.0323061)
(-47.1394 -0.0244932 0.0257578)
(-47.1751 -0.0234179 0.0178233)
(-47.2024 -0.0230948 0.00760446)
(-47.2262 -0.0175501 -0.0188373)
(-47.2307 -0.0349445 0.0443975)
(-43.5553 -0.0281543 0.0206201)
(-43.5752 -0.0249956 -0.00243401)
(-43.5855 -0.0247803 -0.0242816)
(-43.5891 -0.0260323 -0.0443607)
(-43.5892 -0.0272874 -0.0448494)
(-43.5963 -0.0277975 -0.0288044)
(-43.6174 -0.0278347 -0.0121014)
(-43.6488 -0.020722 -0.023735)
(-43.6619 -0.0323664 0.0588383)
(-40.7603 -0.0145352 0.00536748)
(-40.769 -0.0113249 -0.0184459)
(-40.7489 -0.0106228 -0.0409046)
(-40.7107 -0.0123972 -0.0532823)
(-40.6641 -0.0148427 -0.0569036)
(-40.6281 -0.0181804 -0.0507813)
(-40.6163 -0.0202176 -0.0305846)
(-40.6329 -0.0140068 -0.0293061)
(-40.6529 -0.0226678 0.0610656)
(-38.3736 -0.00700849 -0.0176659)
(-38.3633 -0.00674352 -0.00908053)
(-38.3489 -0.00486472 -0.00207919)
(-38.3299 -0.00501026 0.00219)
(-38.3074 -0.00530412 0.00117436)
(-38.2859 -0.00666532 -0.001346)
(-38.2748 -0.00984145 0.000302665)
(-38.2861 -0.00608698 -0.0194981)
(-38.306 -0.0190701 0.0567159)
(-36.3147 -0.00963438 -0.00835689)
(-36.3041 -0.0122144 0.00785346)
(-36.3094 -0.012397 0.0187076)
(-36.3242 -0.0120026 0.0234013)
(-36.3429 -0.00826422 0.0207854)
(-36.362 -0.00409665 0.0208508)
(-36.3822 -0.00354226 0.0206687)
(-36.4092 0.00254146 -0.0107394)
(-36.4277 -0.0155634 0.0577019)
(-34.5575 -0.00931221 0.0150662)
(-34.5617 -0.0116828 0.010367)
(-34.5711 -0.0140149 0.00621773)
(-34.582 -0.0154101 -0.00800348)
(-34.5929 -0.0127769 -0.0136316)
(-34.6061 -0.00670527 -0.0117414)
(-34.626 -0.00144667 -5.77834e-05)
(-34.656 0.00768084 -0.0164362)
(-34.6721 -0.00918607 0.06286)
(-33.0353 -0.00485189 0.00915383)
(-33.044 -0.00499679 -0.00116597)
(-33.045 -0.00688701 -0.0107845)
(-33.0339 -0.0114057 -0.024617)
(-33.0127 -0.0127167 -0.0272856)
(-32.9924 -0.0114175 -0.0267036)
(-32.9838 -0.00881153 -0.0143321)
(-32.997 0.000292968 -0.0183412)
(-33.0131 -0.0079783 0.0582098)
(-31.6952 -0.00407787 -0.0144497)
(-31.6937 -0.00300503 -0.0104065)
(-31.6883 -0.00306267 -0.00577418)
(-31.6748 -0.00494794 0.000914446)
(-31.6568 -0.00646886 0.0102496)
(-31.6396 -0.00874469 0.010491)
(-31.6292 -0.0110764 0.00836644)
(-31.634 -0.00650083 -0.00843734)
(-31.6482 -0.0126235 0.0455096)
(-30.5043 -0.00480034 -0.0185667)
(-30.4944 -0.00323672 -0.00729855)
(-30.4926 -0.00118276 0.00762605)
(-30.4959 0.00259961 0.0235889)
(-30.5046 0.00409397 0.0354964)
(-30.5184 0.00288957 0.0386857)
(-30.533 -0.00173229 0.0332944)
(-30.5486 0.000588443 0.00474765)
(-30.5591 -0.011228 0.0483064)
(-29.4299 -0.00220246 -0.000470725)
(-29.4253 -0.000251292 0.00213632)
(-29.4284 0.00308967 0.00632476)
(-29.4388 0.0089432 0.0119604)
(-29.4558 0.0115203 0.0191955)
(-29.4803 0.0119126 0.022355)
(-29.508 0.0087149 0.0273397)
(-29.5339 0.0110283 0.00455616)
(-29.5443 -0.00470889 0.0578067)
(-28.4609 0.00120243 0.0113063)
(-28.4645 0.00254033 0.00229271)
(-28.4645 0.00490757 -0.00525688)
(-28.4626 0.00767262 -0.00972293)
(-28.461 0.00648257 -0.00837082)
(-28.4659 0.00504944 -0.00518924)
(-28.4805 0.00330319 0.00614758)
(-28.5036 0.00767094 -0.00260859)
(-28.5185 -0.0025268 0.0579336)
(-27.6038 0.00126017 0.00588863)
(-27.6069 0.001386 -0.0020792)
(-27.6013 0.00160811 -0.00839186)
(-27.5882 -0.000503453 -0.0113084)
(-27.5725 -0.00605053 -0.00606446)
(-27.5629 -0.0102484 -0.00709968)
(-27.5637 -0.0119851 -0.00203529)
(-27.5774 -0.00648366 -0.00942011)
(-27.5934 -0.011253 0.0432166)
(-26.8582 -0.000555768 -0.00450413)
(-26.8563 -0.000543246 -0.004734)
(-26.8495 -0.00166807 -0.00166516)
(-26.8387 -0.0049675 0.0016763)
(-26.8281 -0.0110424 0.0124323)
(-26.8252 -0.0155333 0.00788825)
(-26.8275 -0.018364 0.00678649)
(-26.8373 -0.0132019 -0.00956287)
(-26.8496 -0.0185514 0.0322277)
(-26.1985 -0.000259594 -0.00735474)
(-26.1936 0.000325483 -0.00367605)
(-26.1903 0.000303958 0.00698921)
(-26.1897 -0.000361978 0.0128171)
(-26.1947 -0.00228636 0.022709)
(-26.2082 -0.00370524 0.0190418)
(-26.2214 -0.00633324 0.0148301)
(-26.2326 -0.00386768 -0.00767245)
(-26.2386 -0.0142 0.0322023)
(-25.603 0.000856945 -0.00251361)
(-25.5979 0.00170031 0.00178899)
(-25.5986 0.00370305 0.00800728)
(-25.6055 0.00667046 0.00987172)
(-25.6204 0.0102097 0.0143429)
(-25.6431 0.0131342 0.0141926)
(-25.664 0.0124455 0.0137959)
(-25.6781 0.0135275 -0.00385765)
(-25.6805 -0.00197343 0.0416837)
(-25.0634 -0.0012744 0.00682851)
(-25.0616 0.000104635 0.00663554)
(-25.0638 0.00307086 0.00428588)
(-25.0698 0.00800077 -0.000697411)
(-25.0824 0.0146927 -0.00190806)
(-25.1012 0.0206843 0.00111869)
(-25.1205 0.0219587 0.00651427)
(-25.1349 0.0235712 -0.00209384)
(-25.1385 0.00704864 0.0497247)
(-24.5826 -0.00452461 0.0129015)
(-24.5849 -0.00321188 0.00878558)
(-24.5854 -0.00164516 0.000530695)
(-24.5848 0.0018277 -0.0112453)
(-24.5865 0.00749512 -0.0161104)
(-24.5936 0.0131424 -0.0126334)
(-24.6045 0.0148849 -8.35178e-05)
(-24.6174 0.018351 -0.00152374)
(-24.6259 0.00571443 0.0527966)
(-24.1562 -0.00461339 0.0132318)
(-24.1608 -0.0042707 0.00932933)
(-24.16 -0.0053645 -0.00049463)
(-24.1538 -0.00573487 -0.0135796)
(-24.1456 -0.00445051 -0.01926)
(-24.1421 -0.00211879 -0.0177314)
(-24.1447 -0.00193452 -0.00312173)
(-24.1554 0.00312092 -0.00289336)
(-24.1677 -0.00538458 0.0480679)
(-23.7753 5.60497e-05 0.00999645)
(-23.7807 -0.000862816 0.00719058)
(-23.7797 -0.00427118 0.000750728)
(-23.7718 -0.00852329 -0.00905898)
(-23.7606 -0.0123073 -0.0138998)
(-23.7532 -0.0141236 -0.014976)
(-23.7526 -0.0163903 -0.00221977)
(-23.7626 -0.0107557 -0.00328669)
(-23.7764 -0.0162145 0.0411097)
(-23.4305 0.00731705 0.00472417)
(-23.4351 0.00625885 0.00458619)
(-23.4347 0.00229603 0.00363315)
(-23.4294 -0.00399167 -0.00154994)
(-23.4216 -0.0108371 -0.00444407)
(-23.4172 -0.0156263 -0.00792024)
(-23.4181 -0.0202737 -0.000266918)
(-23.4277 -0.0162682 -0.00638333)
(-23.4393 -0.0213674 0.0322637)
(-23.1128 0.012834 0.00144491)
(-23.1154 0.012298 0.00250621)
(-23.1165 0.00944947 0.00646831)
(-23.1159 0.0035238 0.00431606)
(-23.1146 -0.00319687 0.00315368)
(-23.1166 -0.0083444 -0.00101879)
(-23.1224 -0.0132899 0.00324001)
(-23.1343 -0.00967247 -0.00718197)
(-23.148 -0.0142094 0.0305538)
(-22.8183 0.0128095 0.000117343)
(-22.8184 0.0129127 0.00227532)
(-22.8206 0.0120704 0.0076013)
(-22.8249 0.00961423 0.00716215)
(-22.8303 0.00619142 0.00725204)
(-22.8386 0.00297802 0.00296455)
(-22.8478 -0.000599705 0.000549617)
(-22.8542 0.00106668 -0.015294)
(-22.845 -0.0104889 0.012868)
(-463.634 -50.1841 -0.0568295)
(-463.759 -50.1865 -0.00595403)
(-463.766 -50.1864 -0.000287471)
(-463.767 -50.1864 8.69875e-05)
(-463.766 -50.1865 0.000577497)
(-463.767 -50.1859 0.000674704)
(-463.767 -50.186 0.000124024)
(-463.767 -50.1859 0.000134971)
(-463.767 -50.1857 -6.77175e-05)
(-134.512 -1.23122 -0.152261)
(-134.462 -1.22702 -0.0175244)
(-134.463 -1.22754 -0.003032)
(-134.467 -1.22736 -0.000750403)
(-134.468 -1.22699 -0.000819217)
(-134.467 -1.22695 -0.00122615)
(-134.466 -1.22693 -0.000632135)
(-134.464 -1.22716 0.000883875)
(-134.463 -1.22715 0.0022731)
(-95.7068 -0.213552 -0.0865567)
(-95.6524 -0.196813 0.00514137)
(-95.6176 -0.20185 -0.00360598)
(-95.6076 -0.203034 -0.00180801)
(-95.6055 -0.203722 0.00122788)
(-95.6051 -0.204369 0.00419966)
(-95.6094 -0.204021 0.00571442)
(-95.6141 -0.203321 0.00374349)
(-95.6157 -0.202771 0.00054327)
(-77.2297 -0.133564 -0.0395917)
(-77.2297 -0.107789 0.0489633)
(-77.2065 -0.113438 0.0140088)
(-77.1958 -0.112094 0.0015894)
(-77.1883 -0.111258 -0.00841621)
(-77.18 -0.111281 -0.0121081)
(-77.172 -0.112472 -0.0115925)
(-77.1637 -0.114078 -0.00971804)
(-77.1554 -0.11581 -0.0052443)
(-65.302 -0.0868048 -0.0818433)
(-65.2893 -0.0752002 0.0129261)
(-65.2652 -0.0826058 0.00593167)
(-65.2534 -0.0838248 0.0073033)
(-65.2493 -0.084864 0.00755982)
(-65.249 -0.0846251 0.00794045)
(-65.2498 -0.083454 0.00783621)
(-65.2511 -0.081778 0.00811681)
(-65.2553 -0.0798327 0.00798741)
(-57.2268 -0.0567389 -0.0670459)
(-57.2031 -0.0438353 0.0200906)
(-57.1751 -0.0518718 0.016794)
(-57.1717 -0.05266 0.0206752)
(-57.1778 -0.0539139 0.0173017)
(-57.1875 -0.0538113 0.0125274)
(-57.1989 -0.0521791 0.00768078)
(-57.2106 -0.0497826 0.00305507)
(-57.2202 -0.0479399 -0.00368213)
(-51.4712 -0.0483825 -0.0427564)
(-51.4603 -0.0309196 0.030446)
(-51.4485 -0.033538 0.0157931)
(-51.4528 -0.0304893 0.0122549)
(-51.4622 -0.0272395 0.00118213)
(-51.4662 -0.0246488 -0.00828086)
(-51.4628 -0.0236089 -0.0152738)
(-51.4532 -0.0245666 -0.0192068)
(-51.4383 -0.0273277 -0.0176048)
(-47.1233 -0.0357185 -0.0586216)
(-47.1103 -0.0187515 0.0144304)
(-47.0912 -0.0241905 -0.00591782)
(-47.085 -0.0220156 -0.00504259)
(-47.0815 -0.0205351 -0.00902325)
(-47.0739 -0.0190728 -0.0106496)
(-47.0579 -0.0196778 -0.0109155)
(-47.0351 -0.0228998 -0.0073811)
(-47.0129 -0.0268087 0.000271161)
(-43.637 -0.0179619 -0.0548486)
(-43.6233 -0.00692972 0.0117896)
(-43.595 -0.016769 -0.00483458)
(-43.5728 -0.0191139 -0.00650092)
(-43.5547 -0.0211668 -0.0067857)
(-43.5398 -0.0238499 0.00377927)
(-43.5305 -0.026574 0.0158814)
(-43.5292 -0.0285191 0.0267258)
(-43.5379 -0.0290151 0.0296317)
(-40.741 -0.0173245 -0.0503298)
(-40.728 -0.0094508 0.0216984)
(-40.7042 -0.0208703 0.00522123)
(-40.6908 -0.0203828 0.0126836)
(-40.6807 -0.0203088 0.0125604)
(-40.6769 -0.0204804 0.0191345)
(-40.6846 -0.0210708 0.0268018)
(-40.7049 -0.0205062 0.0280252)
(-40.7332 -0.0185157 0.0206892)
(-38.3515 -0.0278049 -0.0441425)
(-38.3397 -0.0178721 0.0230743)
(-38.3242 -0.0229207 0.0114356)
(-38.3289 -0.0159854 0.0220698)
(-38.3396 -0.0104617 0.0199331)
(-38.3522 -0.00677509 0.0141199)
(-38.3628 -0.00670245 0.00423233)
(-38.371 -0.007998 -0.00577131)
(-38.3755 -0.00806662 -0.0138068)
(-36.3585 -0.0272603 -0.0422641)
(-36.3539 -0.0124882 0.0214031)
(-36.3466 -0.0120011 0.00242731)
(-36.3536 -0.00280021 0.00380973)
(-36.3639 0.00201423 -0.00246484)
(-36.3707 0.00331706 -0.00924392)
(-36.3668 -4.16904e-05 -0.0141067)
(-36.3536 -0.00412343 -0.0154947)
(-36.3344 -0.00747807 -0.013239)
(-34.6182 -0.0149451 -0.0517788)
(-34.6185 0.00266052 0.00678932)
(-34.6086 0.00301835 -0.015553)
(-34.6001 0.00670532 -0.0177497)
(-34.5909 0.00524424 -0.0187285)
(-34.5818 0.00232165 -0.0127843)
(-34.571 -0.00135149 -0.00264292)
(-34.5626 -0.00455086 0.00794479)
(-34.5578 -0.00713577 0.0145571)
(-33.0644 -0.00670632 -0.0689815)
(-33.0552 0.0066426 -0.00880406)
(-33.034 0.00235456 -0.0222072)
(-33.0135 0.00081198 -0.0118894)
(-32.9992 -0.00433813 -0.00203473)
(-32.992 -0.00803604 0.00460077)
(-32.9925 -0.00929444 0.0124625)
(-33.0022 -0.00779715 0.0164528)
(-33.0189 -0.00594826 0.0143925)
(-31.7101 -0.0100127 -0.0595169)
(-31.6898 0.00132519 0.00169812)
(-31.6627 -0.00530936 -0.00668919)
(-31.6494 -0.00759899 0.00870917)
(-31.6496 -0.0125358 0.0171493)
(-31.6599 -0.0141449 0.0149141)
(-31.6713 -0.0141771 0.0050293)
(-31.6827 -0.0103485 -0.00385709)
(-31.6911 -0.00672801 -0.0123957)
(-30.5295 -0.0117304 -0.0468359)
(-30.5131 -0.000563901 0.0123191)
(-30.4961 -0.00712037 0.00182799)
(-30.4956 -0.0088838 0.0105071)
(-30.5088 -0.0107905 0.0106879)
(-30.5256 -0.0103335 0.000871054)
(-30.5325 -0.0094293 -0.00948617)
(-30.529 -0.00727829 -0.0192427)
(-30.5181 -0.006057 -0.0230341)
(-29.4748 -0.00703425 -0.0483138)
(-29.465 0.00242077 0.00743108)
(-29.4551 -0.0040416 -0.00913611)
(-29.4551 -0.00340536 -0.00847446)
(-29.4625 -0.0026903 -0.0115051)
(-29.4701 -0.000555893 -0.0125424)
(-29.4679 0.000275971 -0.0108792)
(-29.4575 0.00050457 -0.00783644)
(-29.4426 -0.00170375 -0.00519734)
(-28.5067 -0.00496282 -0.0538553)
(-28.4961 0.00321326 -0.000719834)
(-28.4811 -0.00336734 -0.018643)
(-28.4721 -0.000631136 -0.016983)
(-28.4665 0.00181572 -0.0167334)
(-28.4647 0.00463388 -0.00944928)
(-28.4616 0.00501356 0.00054473)
(-28.4596 0.00400344 0.0104729)
(-28.4584 0.00136056 0.0145833)
(-27.6309 -0.00789842 -0.0439347)
(-27.6187 0.0010269 0.00461435)
(-27.6001 -0.00402795 -0.0133168)
(-27.5865 -0.000234852 -0.0112655)
(-27.5773 0.00324156 -0.00949581)
(-27.5745 0.00558708 -0.00325537)
(-27.5761 0.00506376 0.00576064)
(-27.5837 0.00320608 0.013379)
(-27.5941 0.0011521 0.0138326)
(-26.8723 -0.00935107 -0.0329641)
(-26.8618 0.000736653 0.0120104)
(-26.846 -0.002215 -0.00595593)
(-26.8355 0.00243497 -0.00454717)
(-26.8296 0.00547666 -0.00360321)
(-26.8294 0.0060461 0.000149989)
(-26.8344 0.00412414 0.00334061)
(-26.8435 0.00144397 0.00331275)
(-26.8529 -0.000532962 0.00123054)
(-26.2197 -0.00767575 -0.028774)
(-26.2141 0.00438269 0.0141008)
(-26.2028 0.00346605 -0.00669587)
(-26.1956 0.00808256 -0.00751315)
(-26.1908 0.00836381 -0.00853139)
(-26.1914 0.00757384 -0.00359699)
(-26.1953 0.00407127 -0.0040948)
(-26.1996 0.00114034 -0.00656986)
(-26.2009 -0.000364125 -0.00833121)
(-25.6469 -0.00383354 -0.0360207)
(-25.6439 0.0100131 0.00807235)
(-25.6327 0.00927123 -0.0135046)
(-25.6235 0.0124061 -0.0141146)
(-25.6159 0.0110951 -0.0138889)
(-25.6142 0.00836317 -0.00828372)
(-25.6145 0.00462166 -0.00696687)
(-25.6136 0.00172937 -0.00644209)
(-25.6093 0.000561559 -0.00583577)
(-25.1258 -0.00146721 -0.0432086)
(-25.1218 0.0127507 0.00283159)
(-25.1078 0.0106452 -0.0177734)
(-25.0928 0.0120061 -0.0183355)
(-25.08 0.00950909 -0.0172957)
(-25.0744 0.00563638 -0.00957088)
(-25.0732 0.00229593 -0.00419169)
(-25.0713 -0.000308128 -0.000249598)
(-25.0674 -0.00140706 0.00335717)
(-24.6443 -0.000325709 -0.0460159)
(-24.6365 0.0111031 0.00175047)
(-24.619 0.00670556 -0.0158442)
(-24.6006 0.00632758 -0.0134901)
(-24.585 0.00330674 -0.0132081)
(-24.5778 0.000230728 -0.00504385)
(-24.5776 -0.00216699 0.000549122)
(-24.5788 -0.00394247 0.00699665)
(-24.5806 -0.00458437 0.0119264)
(-24.2003 -0.00223653 -0.0425212)
(-24.1905 0.00693761 0.00743716)
(-24.1726 0.0011401 -0.00821965)
(-24.1557 7.88302e-05 -0.00592779)
(-24.1417 -0.00233522 -0.00625891)
(-24.136 -0.00376002 -0.000817748)
(-24.1378 -0.00452455 0.00438703)
(-24.1429 -0.00475036 0.00927616)
(-24.1495 -0.00441013 0.0133287)
(-23.8011 -0.00389099 -0.0384214)
(-23.7896 0.00302816 0.0121354)
(-23.7726 -0.00392902 -0.00154653)
(-23.7596 -0.00482327 0.00193793)
(-23.7496 -0.00566013 0.001084)
(-23.7467 -0.00491271 0.00290117)
(-23.7502 -0.00350147 0.00447179)
(-23.7581 -0.00203129 0.00817056)
(-23.7671 -0.000251355 0.00818807)
(-23.4433 -0.00575095 -0.0307195)
(-23.4327 0.000679768 0.0186975)
(-23.4195 -0.00584263 0.00393105)
(-23.4104 -0.00633496 0.00539619)
(-23.4041 -0.0061938 0.00294863)
(-23.4038 -0.00378306 0.00291019)
(-23.408 -0.000484176 0.0016406)
(-23.4156 0.00307399 0.00252362)
(-23.4237 0.00637577 0.00224113)
(-23.1329 -0.00323242 -0.0314097)
(-23.1195 0.00162697 0.0158607)
(-23.1079 -0.00577499 0.002056)
(-23.1008 -0.00605897 0.00525241)
(-23.096 -0.00530529 0.00221691)
(-23.0964 -0.00198198 0.00122605)
(-23.0999 0.00255167 -0.00112781)
(-23.1049 0.00732322 -0.00271654)
(-23.1094 0.0113769 -0.00279113)
(-22.8218 -0.00727541 -0.0123039)
(-22.83 0.00208807 0.0199386)
(-22.8251 -0.00371675 0.000887338)
(-22.8191 -0.00370666 0.00188832)
(-22.8139 -0.00311154 -0.00188622)
(-22.8135 -0.000114538 -0.00268917)
(-22.8158 0.00437118 -0.0037977)
(-22.8181 0.00851726 -0.00526998)
(-22.8188 0.0117643 -0.00420479)
(-22.5179 0.000809863 0.0256204)
(-22.3617 0.00462979 0.0175391)
(-22.2098 0.0052913 0.0184913)
(-22.0868 0.00300587 0.0152097)
(-21.9923 0.000963926 0.0141415)
(-21.9224 -0.000709206 0.0134446)
(-21.8715 -0.00204496 0.0130404)
(-21.8349 -0.00296494 0.0123627)
(-21.8083 -0.00414522 0.0126304)
(-22.2983 0.0114273 -0.00469046)
(-22.1733 0.015292 0.0104551)
(-22.0602 0.0114314 0.00958485)
(-21.9648 0.00728953 0.00807792)
(-21.8893 0.00373974 0.00836281)
(-21.8327 0.00103434 0.00868963)
(-21.7916 -0.00113688 0.00938615)
(-21.7623 -0.00220624 0.00866791)
(-21.7405 -0.00446081 0.0114948)
(-22.0544 0.010489 -0.0176139)
(-21.9676 0.0136474 0.0108187)
(-21.8934 0.00889145 0.00972434)
(-21.8286 0.00526902 0.00995063)
(-21.7755 0.00183506 0.00957119)
(-21.7346 -0.00072217 0.00940881)
(-21.7045 -0.00275056 0.00972501)
(-21.6832 -0.00368821 0.00895807)
(-21.6676 -0.00569188 0.0119191)
(-21.7909 0.00122851 -0.0204723)
(-21.7451 0.00555703 0.00558559)
(-21.7086 0.00341468 0.00645394)
(-21.6771 0.00183013 0.00878147)
(-21.6494 -0.000688263 0.00802489)
(-21.627 -0.00267421 0.00802753)
(-21.6102 -0.00433757 0.00838842)