/*--------------------------------*- C++ -*----------------------------------*\
  =========                 |
  \\      /  F ield         | OpenFOAM: The Open Source CFD Toolbox
   \\    /   O peration     | Website:  https://openfoam.org
    \\  /    A nd           | Version:  7
     \\/     M anipulation  |
\*---------------------------------------------------------------------------*/
FoamFile
{
    version     2.0;
    format      ascii;
    class       volVectorField;
    location    "0.00107";
    object      wallShearStress;
}
// * * * * * * * * * * * * * * * * * * * * * * * * * * * * * * * * * * * * * //

dimensions      [1 -1 -2 0 0 0 0];

internalField   uniform (0 0 0);

boundaryField
{
    FRONT
    {
        type            cyclic;
    }
    BACK
    {
        type            cyclic;
    }
    INLET
    {
        type            calculated;
        value           uniform (0 0 0);
    }
    OUTLET
    {
        type            calculated;
        value           uniform (0 0 0);
    }
    TOP
    {
        type            calculated;
        value           uniform (0 0 0);
    }
    BOTTOM
    {
        type            calculated;
        value           nonuniform List<vector> 
5365
(
(-466.21 -50.6442 0.0457317)
(-467.881 -50.9522 0.0471199)
(-469.351 -51.2178 0.0444411)
(-470.505 -51.424 0.0315685)
(-471.24 -51.5535 0.0157674)
(-471.49 -51.5974 0.000757224)
(-471.242 -51.5532 -0.014778)
(-470.508 -51.4234 -0.0306632)
(-469.354 -51.2171 -0.0436064)
(-467.884 -50.9519 -0.0473412)
(-466.209 -50.6448 -0.0469831)
(-135.059 -1.22109 -0.190842)
(-135.82 -1.2413 -0.217922)
(-136.462 -1.25433 -0.230436)
(-136.976 -1.26752 -0.196603)
(-137.318 -1.2782 -0.102122)
(-137.393 -1.27988 -0.0101601)
(-137.314 -1.27931 0.0889949)
(-136.973 -1.26844 0.185474)
(-136.457 -1.25581 0.219144)
(-135.815 -1.24247 0.208911)
(-135.056 -1.22221 0.19216)
(-96.0667 -0.19687 -0.117462)
(-96.5805 -0.21287 -0.0755773)
(-97.0861 -0.214372 -0.0424861)
(-97.4976 -0.211538 -0.0380412)
(-97.7516 -0.211619 -0.016495)
(-97.8288 -0.209547 0.00740142)
(-97.75 -0.212173 0.0348144)
(-97.4984 -0.213142 0.0678781)
(-97.1009 -0.214377 0.0815098)
(-96.6143 -0.212975 0.121282)
(-96.1181 -0.19479 0.131018)
(-77.4814 -0.117984 -0.146706)
(-77.8285 -0.123574 -0.12648)
(-78.1929 -0.128786 -0.0979262)
(-78.5289 -0.126196 -0.0401402)
(-78.7705 -0.123843 -0.0149708)
(-78.8596 -0.12193 -0.00404772)
(-78.7913 -0.12085 -0.000823592)
(-78.5584 -0.119612 0.00458993)
(-78.2043 -0.120942 0.0328216)
(-77.7931 -0.11866 0.0416668)
(-77.3918 -0.122118 0.0893544)
(-65.5619 -0.0730982 0.0316639)
(-65.9159 -0.0691615 0.0282653)
(-66.2154 -0.0848113 -0.0548201)
(-66.4408 -0.0946245 -0.0725447)
(-66.5769 -0.107777 -0.0427791)
(-66.6184 -0.108478 -0.014084)
(-66.5592 -0.109793 0.0196078)
(-66.3944 -0.103895 0.057877)
(-66.1459 -0.104028 0.0820275)
(-65.8525 -0.0904914 0.0406715)
(-65.5345 -0.0866664 0.0429164)
(-57.3876 -0.0446808 0.0223248)
(-57.7725 -0.038754 0.078149)
(-58.134 -0.0407382 0.0383265)
(-58.4103 -0.0329021 0.0327712)
(-58.564 -0.0368191 0.0149701)
(-58.6089 -0.0415439 0.0221395)
(-58.5603 -0.0462618 0.0331099)
(-58.4306 -0.0415998 0.0329462)
(-58.2187 -0.0350903 0.0261749)
(-57.9436 -0.0138655 -0.0245335)
(-57.6299 -0.0103087 -0.000344055)
(-51.57 -0.0423364 -0.109868)
(-51.8235 -0.0404464 -0.0806268)
(-52.0951 -0.0417997 -0.0715219)
(-52.3601 -0.0211369 0.0123429)
(-52.5598 -0.00832635 0.0196293)
(-52.6552 0.00335169 0.0127956)
(-52.6206 0.00700646 -0.0109804)
(-52.4686 0.0091775 -0.0401776)
(-52.2052 -0.000199996 -0.0286651)
(-51.8715 -0.0170625 -0.0525527)
(-51.5425 -0.0526606 0.0207217)
(-47.3091 -0.036224 -0.0845034)
(-47.4524 -0.0412863 -0.0635497)
(-47.5933 -0.0590691 -0.0963625)
(-47.739 -0.0592726 -0.0612215)
(-47.8575 -0.0620404 -0.0351834)
(-47.9089 -0.0580832 -0.0275616)
(-47.8629 -0.0526155 -0.0197523)
(-47.7077 -0.0508911 -0.0182798)
(-47.473 -0.0730349 0.0270525)
(-47.229 -0.0890494 0.00969846)
(-47.0177 -0.102309 0.0522071)
(-43.8607 0.00819308 0.0401837)
(-44.0634 0.0008115 0.0647618)
(-44.2379 -0.0177272 -0.00226656)
(-44.364 -0.0208204 -0.0393546)
(-44.4215 -0.030228 -0.0363331)
(-44.4215 -0.0290714 -0.0231684)
(-44.3558 -0.0420211 0.0084188)
(-44.238 -0.0493585 0.0372551)
(-44.0889 -0.0598885 0.0613134)
(-43.9594 -0.0214526 0.0232767)
(-43.8204 0.0213047 0.0340401)
(-40.8755 0.0457048 0.0357798)
(-41.1444 0.0506205 0.0806007)
(-41.3815 0.0326443 0.0318472)
(-41.5501 0.0340432 0.020738)
(-41.627 0.0347762 0.0038196)
(-41.6356 0.0405438 0.0170104)
(-41.5938 0.0270544 0.0371499)
(-41.5086 0.0133545 0.0451603)
(-41.3861 0.0139497 0.0348538)
(-41.241 0.0643133 -0.023321)
(-41.0449 0.0984132 -0.00386214)
(-38.3614 -0.03241 -0.057579)
(-38.5896 0.00765652 0.0308587)
(-38.8168 0.00214145 0.0364926)
(-38.9908 -0.0119547 0.0796857)
(-39.0967 -0.0323913 0.0663226)
(-39.1465 -0.036734 0.0472529)
(-39.1407 -0.0317623 0.034364)
(-39.0775 -0.025593 0.00882463)
(-38.9448 -0.0114502 -0.0148937)
(-38.7468 0.0164662 -0.0755959)
(-38.5087 0.00545349 -0.0335767)
(-36.3926 -0.107442 -0.0982904)
(-36.5415 -0.0689584 -0.0182709)
(-36.7388 -0.0542795 0.0178746)
(-36.9108 -0.0771719 0.0710062)
(-37.032 -0.120684 0.0609749)
(-37.0968 -0.137722 0.0263258)
(-37.0933 -0.127055 -0.00120148)
(-37.0318 -0.0854658 -0.0380846)
(-36.893 -0.0419916 -0.0485378)
(-36.689 -0.00880807 -0.0853959)
(-36.476 -0.0240029 -0.0111774)
(-34.7815 -0.0396145 -0.0461684)
(-34.9093 -0.0335347 -0.0176918)
(-35.0778 -0.0177353 -0.027855)
(-35.243 -0.0105909 -0.0180511)
(-35.355 -0.0291365 -0.0207294)
(-35.4031 -0.0358726 -0.0270544)
(-35.3749 -0.0227453 -0.0409079)
(-35.2764 0.0207261 -0.0559389)
(-35.1058 0.0580929 -0.0352776)
(-34.8955 0.0856094 -0.0408345)
(-34.7026 0.0688695 0.0428475)
(-33.239 0.0547789 0.0180468)
(-33.4034 0.0593764 0.0303014)
(-33.5747 0.070945 -0.0143435)
(-33.7235 0.103678 -0.0465807)
(-33.8022 0.134369 -0.0543457)
(-33.8259 0.146813 -0.0375667)
(-33.7675 0.151055 -0.0367387)
(-33.6264 0.145351 -0.027739)
(-33.4269 0.11632 0.00726119)
(-33.2235 0.087635 0.00893823)
(-33.0597 0.0504084 0.0482366)
(-31.733 0.00756976 0.00590658)
(-31.9107 0.0315093 0.0435814)
(-32.0967 0.0465153 0.017516)
(-32.2496 0.0771875 0.0114569)
(-32.3301 0.109333 0.000405424)
(-32.3579 0.125415 0.00834774)
(-32.3047 0.113363 0.00795771)
(-32.1754 0.0701143 0.00670172)
(-32.0008 -0.000992594 0.0306032)
(-31.8332 -0.0632196 0.0111998)
(-31.7084 -0.0969358 0.00594466)
(-30.5228 -0.0832754 -0.0295336)
(-30.6466 -0.0730806 -0.00804629)
(-30.791 -0.0759436 -0.0191312)
(-30.932 -0.0665677 0.0273756)
(-31.0333 -0.0639426 0.0253358)
(-31.0893 -0.0507596 0.026129)
(-31.0716 -0.0565979 0.0220855)
(-30.9873 -0.0822345 0.0109822)
(-30.8602 -0.12562 0.0338001)
(-30.7316 -0.153268 0.00092833)
(-30.6247 -0.151547 -0.00581795)
(-29.6059 -0.0376773 -0.0132041)
(-29.6903 -0.0624917 -0.0173643)
(-29.7762 -0.0990096 -0.0527806)
(-29.878 -0.111035 -0.0288199)
(-29.961 -0.126497 -0.0230016)
(-30.0043 -0.121719 -0.0146352)
(-29.9983 -0.110709 -0.00395313)
(-29.9349 -0.0986266 -1.48571e-05)
(-29.8324 -0.0923989 0.0232572)
(-29.7254 -0.056878 -0.00778626)
(-29.6166 -0.0190732 0.00990832)
(-28.7178 0.0708283 0.0250863)
(-28.8269 0.0394947 0.0344616)
(-28.9175 -0.00112196 -0.020171)
(-29.0004 -0.0047254 -0.0553757)
(-29.0419 -0.0110515 -0.0639495)
(-29.0524 0.00337042 -0.0487014)
(-29.0207 0.00751665 -0.0160315)
(-28.9463 0.0176666 0.00450911)
(-28.8464 0.0291909 0.0219917)
(-28.7423 0.0724226 -0.0123063)
(-28.6267 0.1016 0.00598075)
(-27.7549 0.0931178 0.0344651)
(-27.9151 0.0872969 0.0773446)
(-28.058 0.0659492 0.0267504)
(-28.1638 0.0802897 -0.0177095)
(-28.1974 0.0972517 -0.0391037)
(-28.1872 0.103433 -0.0294432)
(-28.1373 0.0896597 0.00291454)
(-28.058 0.068363 0.014392)
(-27.9595 0.0571608 0.0153347)
(-27.8546 0.0757596 -0.01993)
(-27.7404 0.0775083 -0.00487111)
(-26.8713 -0.000666915 0.0051103)
(-27.0386 0.0260029 0.0658953)
(-27.2089 0.0256944 0.041079)
(-27.3407 0.043651 0.0280138)
(-27.4013 0.057172 0.0122119)
(-27.4043 0.0536537 0.00882641)
(-27.368 0.0312119 0.0209144)
(-27.3049 0.00554567 0.0124636)
(-27.2117 -0.00528663 -0.000571354)
(-27.1053 0.0147955 -0.0352315)
(-26.9941 0.0129077 -0.00623661)
(-26.2081 -0.079028 -0.0374036)
(-26.3291 -0.0496493 0.0207706)
(-26.4762 -0.0551739 0.0228835)
(-26.6031 -0.0577906 0.0426319)
(-26.682 -0.0643022 0.0377412)
(-26.7143 -0.0703962 0.0286937)
(-26.6998 -0.0787126 0.0162168)
(-26.6542 -0.0722303 -0.00822187)
(-26.5627 -0.0480749 -0.0287947)
(-26.4475 0.00261849 -0.0551953)
(-26.3319 0.0152751 0.00606602)
(-25.7146 -0.0497356 -0.055256)
(-25.7933 -0.038118 -0.00357801)
(-25.9038 -0.0647321 0.00182561)
(-26.0093 -0.0951162 0.0289798)
(-26.0846 -0.125246 0.0309381)
(-26.1274 -0.1267 0.0189794)
(-26.1198 -0.113373 -0.00214677)
(-26.0724 -0.0643698 -0.036612)
(-25.9695 -0.00315478 -0.0524298)
(-25.8356 0.0661414 -0.0639754)
(-25.7069 0.0781416 0.017833)
(-25.2621 0.043153 -0.0489662)
(-25.3313 0.0418564 0.00525877)
(-25.4306 0.0107476 0.000565417)
(-25.5281 -0.022581 0.0135517)
(-25.5949 -0.0577208 0.0108959)
(-25.6267 -0.0554474 0.000521882)
(-25.6064 -0.0287513 -0.0227785)
(-25.5344 0.031003 -0.0508647)
(-25.4029 0.0837423 -0.0539765)
(-25.2465 0.119587 -0.0523631)
(-25.1131 0.101628 0.0197573)
(-24.7652 0.110899 -0.0222074)
(-24.8576 0.110025 0.0302024)
(-24.9749 0.0984238 0.0112737)
(-25.0838 0.0914568 0.00762689)
(-25.1522 0.0787527 -0.00382959)
(-25.1673 0.0808153 -0.0086967)
(-25.1233 0.0960832 -0.0240171)
(-25.0184 0.116343 -0.0361016)
(-24.8646 0.111022 -0.0277153)
(-24.7086 0.0852744 -0.0272804)
(-24.5955 0.0392076 0.00908115)
(-24.2358 0.0810089 0.0128188)
(-24.3592 0.0999409 0.05299)
(-24.5023 0.12216 0.0260167)
(-24.6301 0.151498 0.0148147)
(-24.7067 0.168513 -0.0021206)
(-24.7164 0.168379 -0.00100339)
(-24.6576 0.150759 -0.00291165)
(-24.5431 0.109933 -0.0064685)
(-24.3974 0.0452524 0.00244633)
(-24.265 -0.0211282 -0.0105168)
(-24.1809 -0.069051 -0.00459466)
(-23.7583 -0.0263579 0.0311999)
(-23.8896 0.0104867 0.0515177)
(-24.0395 0.0567576 0.0252051)
(-24.1763 0.11265 0.0186525)
(-24.2619 0.149277 0.00616534)
(-24.2812 0.146981 0.0164205)
(-24.2308 0.100118 0.0250426)
(-24.1365 0.018329 0.0243054)
(-24.0205 -0.0688984 0.0286667)
(-23.9197 -0.132332 0.00388916)
(-23.8579 -0.15353 -0.0114269)
(-23.3771 -0.146958 0.0424523)
(-23.4839 -0.112868 0.0521483)
(-23.624 -0.0633632 0.0251078)
(-23.7585 -0.00199885 0.0233986)
(-23.8501 0.0392015 0.0135997)
(-23.8852 0.0366425 0.0308873)
(-23.8599 -0.0175395 0.04317)
(-23.8031 -0.0962875 0.0384221)
(-23.7203 -0.162838 0.0320691)
(-23.6453 -0.184114 -0.00223844)
(-23.5945 -0.160608 -0.00776725)
(-23.1411 -0.186064 0.0136172)
(-23.2144 -0.18326 0.00577809)
(-23.3162 -0.162454 -0.0137505)
(-23.4213 -0.123736 0.0016326)
(-23.5047 -0.0922407 0.00347175)
(-23.5515 -0.0902354 0.0351825)
(-23.558 -0.130547 0.0527052)
(-23.5389 -0.164125 0.0489832)
(-23.4854 -0.171177 0.0393577)
(-23.43 -0.117563 0.0100619)
(-23.3743 -0.0526564 0.0245556)
(-22.9348 -0.162017 -0.0150362)
(-23.0021 -0.164622 0.00518675)
(-23.081 -0.176848 -0.0141605)
(-23.1661 -0.171073 -0.00866787)
(-23.232 -0.170898 -0.00605682)
(-23.2831 -0.162697 0.0233115)
(-23.312 -0.159634 0.035552)
(-23.3104 -0.130978 0.0208258)
(-23.2486 -0.08729 0.00973337)
(-23.1595 -0.00413988 -0.0270171)
(-23.0533 0.0477997 0.033302)
(-463.767 -50.1863 0.00029874)
(-463.765 -50.1866 0.000217458)
(-463.764 -50.1866 -9.68129e-05)
(-463.765 -50.1865 -0.000234714)
(-463.766 -50.1861 -0.000377466)
(-463.767 -50.1859 -0.000393377)
(-463.766 -50.1857 9.69867e-05)
(-463.76 -50.1858 0.00597369)
(-463.635 -50.1832 0.0571247)
(-134.475 -1.22453 -0.00308134)
(-134.477 -1.22373 -0.0017898)
(-134.478 -1.22378 0.000461217)
(-134.476 -1.22423 0.00223043)
(-134.472 -1.22523 0.00399579)
(-134.469 -1.22617 0.00451692)
(-134.465 -1.2269 0.00489495)
(-134.462 -1.22682 0.017304)
(-134.507 -1.23166 0.14824)
(-95.5738 -0.209836 0.0141026)
(-95.5757 -0.210605 0.0106852)
(-95.576 -0.210055 0.0030938)
(-95.5756 -0.208679 -0.00169232)
(-95.5742 -0.20663 -0.00459526)
(-95.5759 -0.204451 -0.00389025)
(-95.5855 -0.201949 0.0033817)
(-95.6248 -0.196474 0.000923448)
(-95.6849 -0.211354 0.096237)
(-77.2473 -0.108633 -0.00879374)
(-77.2396 -0.106924 -0.01097)
(-77.2326 -0.107445 -0.00847456)
(-77.2269 -0.111321 -0.00459718)
(-77.2247 -0.115118 -0.0034786)
(-77.2251 -0.117856 -0.00746983)
(-77.2281 -0.118593 -0.0224838)
(-77.2461 -0.113569 -0.0633905)
(-77.2382 -0.139268 0.0197301)
(-65.2545 -0.0631317 -0.00726404)
(-65.2504 -0.0649978 0.00162791)
(-65.259 -0.0627466 0.00965735)
(-65.2777 -0.0607248 0.0139106)
(-65.3005 -0.0599118 0.0128527)
(-65.32 -0.0614515 0.00770184)
(-65.3314 -0.066107 0.000417808)
(-65.3441 -0.0679763 -0.00329134)
(-65.3461 -0.0847616 0.092)
(-57.0313 -0.0880296 0.00629031)
(-57.041 -0.0952633 0.00351204)
(-57.0461 -0.0961386 -0.00249572)
(-57.0415 -0.0912962 -0.0118577)
(-57.0321 -0.0826579 -0.0151764)
(-57.0314 -0.072428 -0.0140181)
(-57.048 -0.0611414 -0.00403505)
(-57.0958 -0.0502982 0.00330915)
(-57.1479 -0.0481952 0.0932352)
(-51.5 -0.0317305 0.00685171)
(-51.5103 -0.0228425 0.00430993)
(-51.5042 -0.0228189 0.000453322)
(-51.4817 -0.0279459 -0.0037864)
(-51.4481 -0.0388336 -0.00894182)
(-51.4193 -0.0483366 -0.0186175)
(-51.4015 -0.0509259 -0.0310687)
(-51.4101 -0.0421696 -0.0643662)
(-51.4235 -0.0526036 0.00376787)
(-47.2529 0.0502852 -0.0123599)
(-47.2335 0.0607906 -0.0041793)
(-47.2337 0.0668482 -0.000488688)
(-47.2489 0.062931 0.00393885)
(-47.2721 0.0472928 0.00904291)
(-47.2873 0.0241069 0.00299333)
(-47.2838 -0.000189869 -0.00479038)
(-47.2647 -0.0172912 -0.0350447)
(-47.2294 -0.0449773 0.0253234)
(-43.4565 -0.0595366 -0.00391561)
(-43.4224 -0.0873097 -0.016002)
(-43.4208 -0.0916684 -0.0241223)
(-43.4476 -0.0791773 -0.0252857)
(-43.5064 -0.0480335 -0.0132007)
(-43.5785 -0.0152083 0.0108803)
(-43.6494 0.00704277 0.0354096)
(-43.709 0.0239317 0.0209099)
(-43.7365 0.00681723 0.114664)
(-40.5617 -0.151163 0.0317053)
(-40.5989 -0.165 -0.00391622)
(-40.6033 -0.174285 -0.0106411)
(-40.586 -0.16808 -0.0351089)
(-40.5567 -0.136907 -0.0496213)
(-40.5402 -0.0885405 -0.0405992)
(-40.561 -0.0380206 -0.0134703)
(-40.619 0.0101531 0.00220058)
(-40.6914 0.0328106 0.0939801)
(-38.4925 0.0290674 -0.00812807)
(-38.5583 0.0620238 0.00692502)
(-38.5744 0.0638116 0.0115996)
(-38.5421 0.0495513 0.0108954)
(-38.4569 0.0170634 -0.00509464)
(-38.3507 -0.0197005 -0.0218038)
(-38.2622 -0.0476403 -0.0345726)
(-38.22 -0.0584581 -0.0640337)
(-38.2266 -0.0655643 0.0127766)
(-36.5244 0.180386 -0.0723739)
(-36.5138 0.201281 -0.0212028)
(-36.5149 0.202466 0.00922938)
(-36.5137 0.191884 0.0383756)
(-36.4945 0.148561 0.0739431)
(-36.463 0.0732612 0.0818544)
(-36.4196 -0.020887 0.0494373)
(-36.3749 -0.080419 -0.0304432)
(-36.3379 -0.117096 -0.0154032)
(-34.4848 0.033039 -0.0491343)
(-34.4039 -0.00757623 -0.019883)
(-34.3797 -0.0165329 -0.00143151)
(-34.4016 0.00129052 0.0163596)
(-34.469 0.0347111 0.0627518)
(-34.5777 0.0566766 0.105804)
(-34.6865 0.0365291 0.110126)
(-34.7417 0.0139595 0.0166014)
(-34.7255 -0.0300424 0.0453551)
(-32.8915 -0.124616 0.0344227)
(-32.8738 -0.159832 0.0230416)
(-32.8679 -0.161057 0.00411496)
(-32.8597 -0.141685 -0.0179571)
(-32.8717 -0.0884298 -0.0171023)
(-32.9276 -0.0174905 -0.00256109)
(-33.0192 0.0504502 0.0367331)
(-33.1086 0.0836048 0.0251961)
(-33.1289 0.0531374 0.0943793)
(-31.6815 -0.0419074 0.0530567)
(-31.7284 -0.0269485 0.0390055)
(-31.742 -0.0193017 0.0203059)
(-31.715 -0.0341055 0.00340278)
(-31.6626 -0.0500025 -0.0306011)
(-31.6114 -0.045461 -0.0503354)
(-31.5875 -0.0242224 -0.0364673)
(-31.5964 -0.00276849 -0.00855961)
(-31.6161 -0.0136678 0.0615797)
(-30.522 0.0515273 0.00823389)
(-30.558 0.0853372 0.0111819)
(-30.5758 0.0907057 0.0228518)
(-30.573 0.0615769 0.0302835)
(-30.5487 0.0116173 0.0190069)
(-30.5087 -0.0361117 -0.000341356)
(-30.4714 -0.065032 -0.00573103)
(-30.4539 -0.0784545 -0.00876404)
(-30.4554 -0.0888725 0.0321253)
(-29.3685 -0.0321828 -0.01456)
(-29.3614 -0.0212189 -0.0131696)
(-29.3701 -0.0124731 -0.00336014)
(-29.4022 -0.00445806 0.0104681)
(-29.4506 0.00292367 0.0201292)
(-29.4967 0.00234536 0.0256428)
(-29.53 -0.00559878 0.032583)
(-29.5515 -0.00695955 0.0187327)
(-29.5571 -0.0217475 0.0632399)
(-28.4394 -0.126066 -0.00530509)
(-28.4311 -0.120144 -0.0164361)
(-28.4317 -0.0981308 -0.0309154)
(-28.444 -0.0561718 -0.0399776)
(-28.4712 -0.00036046 -0.0374808)
(-28.5099 0.0495599 -0.0155897)
(-28.5547 0.0841528 0.0125069)
(-28.6043 0.105423 0.0285341)
(-28.6349 0.0873297 0.106903)
(-27.707 -0.0396023 -0.0016518)
(-27.7098 -0.0159292 -0.0108388)
(-27.6922 -0.00321739 -0.0296486)
(-27.6525 0.0105224 -0.0443554)
(-27.6011 0.0270443 -0.0526363)
(-27.5586 0.0436088 -0.0448333)
(-27.5484 0.0563565 -0.0179717)
(-27.575 0.079263 5.28103e-05)
(-27.6312 0.0903313 0.0880455)
(-27.0039 0.137692 -0.0115531)
(-26.9954 0.153511 0.000464019)
(-26.9597 0.133423 0.0104351)
(-26.8961 0.0820034 0.013417)
(-26.8155 0.0147479 0.00373881)
(-26.7431 -0.0439836 -0.0163708)
(-26.7022 -0.0704352 -0.0264203)
(-26.7097 -0.0602178 -0.0346288)
(-26.7518 -0.0313313 0.0216855)
(-26.23 0.189922 -0.0114338)
(-26.2039 0.173234 0.0181974)
(-26.1829 0.131574 0.0546522)
(-26.1614 0.0541183 0.0753217)
(-26.1403 -0.0406008 0.0687893)
(-26.1259 -0.115199 0.0268471)
(-26.1164 -0.148815 -0.0130664)
(-26.1186 -0.133798 -0.0569453)
(-26.1337 -0.115033 -0.0166095)
(-25.4864 0.0643828 0.00406968)
(-25.4675 0.0300024 0.0311587)
(-25.4805 0.00190357 0.0647605)
(-25.5252 -0.0333358 0.0802729)
(-25.5885 -0.0696172 0.0745271)
(-25.6493 -0.0944694 0.0328475)
(-25.6816 -0.0969819 -0.00655502)
(-25.6826 -0.0825395 -0.0504609)
(-25.6784 -0.071525 -0.0102016)
(-24.8996 -0.109129 0.01917)
(-24.9042 -0.130057 0.032639)
(-24.9461 -0.122761 0.0355845)
(-25.0209 -0.0848221 0.0283887)
(-25.1181 -0.0312767 0.0212642)
(-25.2102 0.0175755 0.00193877)
(-25.2569 0.0402724 -0.00437897)
(-25.2529 0.0483203 -0.0305809)
(-25.2339 0.0423326 0.0197605)
(-24.486 -0.206606 0.0306608)
(-24.5045 -0.204718 0.0148492)
(-24.5423 -0.159002 -0.0115496)
(-24.5959 -0.0751678 -0.0408376)
(-24.6618 0.0327019 -0.0518287)
(-24.724 0.12799 -0.0389779)
(-24.754 0.165923 -0.0066543)
(-24.7467 0.155337 -0.00118471)
(-24.7177 0.120782 0.0546903)
(-24.1721 -0.177722 0.0226981)
(-24.1911 -0.158834 0.00591109)
(-24.199 -0.12084 -0.0467121)
(-24.1976 -0.0390834 -0.0859012)
(-24.1917 0.0608745 -0.0963172)
(-24.1864 0.144396 -0.0698732)
(-24.1835 0.172128 -0.00535876)
(-24.1864 0.155665 0.0180839)
(-24.1635 0.0875934 0.0749557)
(-23.8932 -0.0626888 0.0160542)
(-23.8993 -0.0516756 -0.00179616)
(-23.8698 -0.045245 -0.0467825)
(-23.808 -0.0226092 -0.0842521)
(-23.7345 0.0134613 -0.0921931)
(-23.6716 0.0418698 -0.0650548)
(-23.6411 0.0432774 -0.00711903)
(-23.6583 0.0386471 0.0263516)
(-23.6722 -0.0329259 0.0789538)
(-23.5913 0.0768536 0.00897169)
(-23.581 0.0588919 0.00461308)
(-23.5315 0.0162501 -0.0172877)
(-23.4464 -0.0340157 -0.0421942)
(-23.3501 -0.0733502 -0.0492931)
(-23.2723 -0.102585 -0.0348159)
(-23.239 -0.122322 -0.0078897)
(-23.2609 -0.120536 0.0207252)
(-23.3063 -0.153674 0.0561041)
(-23.2496 0.172666 0.00874161)
(-23.2396 0.129227 0.0175393)
(-23.2 0.0498134 0.0195391)
(-23.1335 -0.0479269 0.00953413)
(-23.0586 -0.135542 0.00258998)
(-23.0071 -0.19292 0.00168594)
(-22.9904 -0.219621 0.00278644)
(-23.0192 -0.209407 0.0146872)
(-23.0818 -0.189789 0.0385286)
(-22.8881 0.19308 0.00453049)
(-22.8993 0.153474 0.0241705)
(-22.8984 0.0788036 0.0464085)
(-22.8801 -0.0203611 0.0525111)
(-22.8501 -0.115131 0.045509)
(-22.83 -0.175675 0.0277614)
(-22.8355 -0.191555 0.00998084)
(-22.8607 -0.167458 -0.0103675)
(-22.8862 -0.145443 0.00355216)
(-463.634 -50.1842 -0.0572068)
(-463.761 -50.186 -0.00659224)
(-463.768 -50.1855 -0.000942313)
(-463.769 -50.1853 -0.000724649)
(-463.769 -50.1853 7.83441e-05)
(-463.769 -50.1851 0.000293042)
(-463.768 -50.1855 0.000307436)
(-463.767 -50.1858 0.000606647)
(-463.767 -50.186 0.000591633)
(-134.507 -1.23233 -0.147795)
(-134.452 -1.22974 -0.00781236)
(-134.45 -1.23056 0.00700053)
(-134.452 -1.23138 0.00968125)
(-134.457 -1.23099 0.00837142)
(-134.462 -1.22973 0.00396315)
(-134.468 -1.22794 -0.000444274)
(-134.47 -1.22662 -0.00361315)
(-134.473 -1.22532 -0.00445062)
(-95.7435 -0.211407 -0.105742)
(-95.6925 -0.191448 -0.0147306)
(-95.6612 -0.193834 -0.0304925)
(-95.6449 -0.192274 -0.0390356)
(-95.6253 -0.192458 -0.0384492)
(-95.6022 -0.195324 -0.0253613)
(-95.5846 -0.199708 -0.00765959)
(-95.5787 -0.204559 0.00403011)
(-95.5745 -0.207073 0.0112482)
(-77.1197 -0.145262 -0.0225395)
(-77.1162 -0.128944 0.092957)
(-77.1042 -0.140739 0.0646167)
(-77.127 -0.139135 0.0686764)
(-77.162 -0.135642 0.0622026)
(-77.1946 -0.130173 0.0470268)
(-77.2203 -0.124869 0.0295605)
(-77.2415 -0.117048 0.0134638)
(-77.2483 -0.111879 0.000474513)
(-65.3495 -0.0918645 -0.0584321)
(-65.3595 -0.0700325 0.00570957)
(-65.3539 -0.0702565 -0.0335161)
(-65.3429 -0.067579 -0.0417968)
(-65.3346 -0.0694645 -0.0379989)
(-65.328 -0.0689209 -0.031459)
(-65.3153 -0.0666521 -0.0276738)
(-65.2943 -0.0644874 -0.0240001)
(-65.2705 -0.06337 -0.0178922)
(-57.4343 -0.0196044 -0.114868)
(-57.3962 0.00537258 -0.0328544)
(-57.3093 -0.000477109 -0.0666191)
(-57.2193 -0.00212244 -0.046924)
(-57.142 -0.014248 -0.0297734)
(-57.0826 -0.0288554 -0.0167663)
(-57.0433 -0.0466794 -0.00594755)
(-57.0248 -0.0638285 0.00164627)
(-57.023 -0.0771323 0.00431565)
(-51.3443 -0.0815075 -0.0517685)
(-51.3069 -0.0645818 0.0574026)
(-51.2599 -0.0742465 0.0833631)
(-51.2555 -0.0809134 0.114162)
(-51.2874 -0.086042 0.109961)
(-51.3322 -0.0829092 0.0775051)
(-51.3794 -0.0737086 0.0463223)
(-51.4274 -0.0605207 0.027328)
(-51.4703 -0.0461249 0.0149804)
(-46.9069 -0.100981 -0.0149585)
(-46.9192 -0.0688038 0.0761897)
(-46.9606 -0.0645984 0.0786691)
(-47.043 -0.0642318 0.084348)
(-47.1412 -0.0558227 0.0520086)
(-47.2231 -0.033844 0.0165603)
(-47.272 -0.00907419 -0.00133482)
(-47.2875 0.0116458 -0.0122359)
(-47.2774 0.0321638 -0.0125367)
(-43.7382 0.055558 -0.0487179)
(-43.7396 0.0810009 0.00691611)
(-43.7438 0.0807964 -0.0171308)
(-43.7551 0.0798878 -0.0413268)
(-43.7515 0.0827835 -0.0693322)
(-43.7228 0.082739 -0.06984)
(-43.6663 0.0632511 -0.0434956)
(-43.5972 0.0271661 -0.0180586)
(-43.5225 -0.015815 -0.00690044)
(-40.9026 0.104591 -0.0922011)
(-40.8344 0.0819282 -0.0199025)
(-40.7665 0.0509043 -0.0432819)
(-40.6881 0.0235809 -0.0508914)
(-40.6066 3.34178e-06 -0.0578034)
(-40.5349 -0.0231034 -0.0383854)
(-40.4923 -0.0575643 -0.0110592)
(-40.4891 -0.0856732 0.0176757)
(-40.517 -0.119897 0.0317782)
(-38.3303 -0.0360786 -0.0760774)
(-38.2523 -0.105287 0.00717365)
(-38.1839 -0.15326 0.0109985)
(-38.1538 -0.18175 0.0346833)
(-38.1559 -0.192901 0.0355535)
(-38.1795 -0.177559 0.0167164)
(-38.2281 -0.136939 -0.00686401)
(-38.3004 -0.0857808 -0.0226029)
(-38.3944 -0.0261322 -0.0195712)
(-36.3359 -0.065553 -0.0202091)
(-36.3097 -0.101728 0.0792376)
(-36.3104 -0.138059 0.0781686)
(-36.3606 -0.129872 0.0837966)
(-36.4379 -0.0932122 0.0678702)
(-36.5064 -0.0431682 0.017807)
(-36.541 0.0092501 -0.0369303)
(-36.5489 0.0698821 -0.0829113)
(-36.5391 0.131503 -0.092917)
(-34.6058 0.0519131 0.0111554)
(-34.6425 0.0589448 0.103044)
(-34.706 0.0641699 0.0599491)
(-34.7755 0.0980687 0.0299638)
(-34.8305 0.137104 0.0124375)
(-34.8567 0.166586 -0.0106895)
(-34.8228 0.166456 -0.039305)
(-34.7291 0.13813 -0.0587931)
(-34.6045 0.0892877 -0.0608674)
(-32.9898 0.0320032 -0.0297661)
(-33.0369 0.0627162 0.0153287)
(-33.0887 0.0953979 -0.0386606)
(-33.1055 0.124522 -0.0660676)
(-33.097 0.14489 -0.0702223)
(-33.0658 0.137823 -0.0477574)
(-33.0206 0.0966095 -0.0120279)
(-32.9713 0.0293335 0.0205556)
(-32.9241 -0.0543121 0.0331811)
(-31.6508 -0.105412 -0.0685452)
(-31.6615 -0.0758465 -0.0437421)
(-31.6507 -0.0507092 -0.0921795)
(-31.6144 -0.0176846 -0.0874661)
(-31.567 -0.0103984 -0.0636434)
(-31.5358 -0.0168511 -0.029605)
(-31.5269 -0.0352564 -0.00487561)
(-31.56 -0.0371575 0.0481304)
(-31.6181 -0.046971 0.0579022)
(-30.5582 -0.13296 -0.0761511)
(-30.5499 -0.0825495 -0.0216524)
(-30.4899 -0.0629757 -0.0505846)
(-30.4327 -0.0513175 -0.0104492)
(-30.3944 -0.0552114 0.0132362)
(-30.3817 -0.0538706 0.0187068)
(-30.3846 -0.0467443 0.0143284)
(-30.418 -0.02547 0.0198824)
(-30.4713 0.00976457 0.0140283)
(-29.5362 0.0121095 -0.0657489)
(-29.5069 0.0514244 0.0042492)
(-29.4452 0.0368314 0.014384)
(-29.4082 0.0134712 0.0440972)
(-29.3914 -0.0169962 0.0459333)
(-29.3891 -0.040198 0.0353232)
(-29.3875 -0.0543438 0.0246524)
(-29.3858 -0.0594596 0.00562657)
(-29.3806 -0.0470754 -0.0132258)
(-28.539 0.112706 -0.0616484)
(-28.4971 0.0922798 0.00520889)
(-28.4579 0.0515451 0.0180601)
(-28.4483 0.00896357 0.0316054)
(-28.4467 -0.041443 0.0248007)
(-28.4524 -0.0808491 0.0166301)
(-28.4565 -0.110021 0.0155948)
(-28.4566 -0.125861 0.00817871)
(-28.4477 -0.129963 0.00253805)
(-27.6502 0.0570748 -0.0545698)
(-27.616 0.018286 0.00469485)
(-27.5914 -0.0242938 0.0046449)
(-27.5933 -0.0613587 0.0103045)
(-27.6065 -0.0904988 -0.00538809)
(-27.6265 -0.104481 -0.012754)
(-27.6463 -0.105955 -0.00808972)
(-27.669 -0.0933363 -0.000305411)
(-27.6893 -0.0674792 0.00205853)
(-26.905 -0.0132402 -0.040161)
(-26.8827 -0.0358244 0.0176521)
(-26.8677 -0.0637416 0.0164317)
(-26.88 -0.0722495 0.010729)
(-26.9026 -0.0568556 -0.0158551)
(-26.9286 -0.0263848 -0.0292074)
(-26.9504 0.00983731 -0.0313741)
(-26.9729 0.0537621 -0.0276252)
(-26.9928 0.100156 -0.0210168)
(-26.2459 0.00490657 -0.0233172)
(-26.2356 -0.00182855 0.0388173)
(-26.2327 -0.0107142 0.032135)
(-26.2536 0.00932743 0.0122298)
(-26.2702 0.046117 -0.0131752)
(-26.28 0.0871708 -0.0295099)
(-26.2795 0.123146 -0.041971)
(-26.2706 0.155609 -0.0420051)
(-26.2532 0.180364 -0.0341944)
(-25.623 0.0712186 -0.0159955)
(-25.6241 0.0709689 0.0455549)
(-25.6307 0.0700258 0.030031)
(-25.6443 0.0887465 0.00973692)
(-25.6423 0.107057 -0.00565998)
(-25.6289 0.121129 -0.0219933)
(-25.6032 0.119943 -0.029336)
(-25.5671 0.109108 -0.0284031)
(-25.5243 0.0901875 -0.0195121)
(-25.0372 0.0808586 -0.0145613)
(-25.0482 0.0835192 0.0349382)
(-25.0597 0.0810549 0.0123268)
(-25.0622 0.0834129 0.00134869)
(-25.0477 0.0741255 -0.00589468)
(-25.0204 0.0495834 -0.0104043)
(-24.9899 0.0124605 -0.00845408)
(-24.9562 -0.0291011 -0.00295506)
(-24.9229 -0.0721561 0.00773189)
(-24.5366 0.00811042 -0.021135)
(-24.5491 0.0158656 0.00885583)
(-24.5588 0.015286 -0.00975493)
(-24.5527 0.0065483 -0.0128448)
(-24.5349 -0.0200919 -0.00759149)
(-24.5152 -0.0621425 0.000327385)
(-24.4984 -0.108255 0.00552858)
(-24.4857 -0.150152 0.0142324)
(-24.4806 -0.184635 0.025507)
(-24.1399 -0.0900716 -0.0262152)
(-24.1488 -0.0709387 -0.00836569)
(-24.1527 -0.0631217 -0.0237622)
(-24.145 -0.0682465 -0.0184465)
(-24.1346 -0.0909295 -0.00977821)
(-24.1331 -0.118005 0.000895669)
(-24.1364 -0.144822 0.00785)
(-24.1415 -0.167729 0.0175591)
(-24.1533 -0.180648 0.0253878)
(-23.8252 -0.147062 -0.0376635)
(-23.8254 -0.116146 -0.0190582)
(-23.8198 -0.097964 -0.0341033)
(-23.815 -0.0832255 -0.0199835)
(-23.8174 -0.078251 -0.0114199)
(-23.8301 -0.0733396 -0.00487439)
(-23.8463 -0.0661034 0.00227762)
(-23.8619 -0.0673048 0.0115113)
(-23.8788 -0.067188 0.0146812)
(-23.5611 -0.120562 -0.0486866)
(-23.5491 -0.0836256 -0.0143633)
(-23.5322 -0.0570151 -0.0342922)
(-23.5281 -0.0186985 -0.0214055)
(-23.5349 0.0138742 -0.0171085)
(-23.5488 0.0453377 -0.012912)
(-23.5626 0.0720743 -0.00502913)
(-23.5761 0.0829167 0.00345704)
(-23.5861 0.083055 0.00824787)
(-23.3125 -0.00987779 -0.0573056)
(-23.2849 0.0100682 -0.00743484)
(-23.2523 0.0313094 -0.035429)
(-23.2364 0.076612 -0.0228461)
(-23.232 0.118993 -0.0195114)
(-23.2314 0.156357 -0.0134263)
(-23.2327 0.18158 -0.00489251)
(-23.239 0.192172 -0.00152657)
(-23.2456 0.190043 0.00168151)
(-23.0017 0.110429 -0.0347199)
(-22.9973 0.13075 0.0107259)
(-22.9628 0.136646 -0.0219854)
(-22.926 0.158754 -0.0204773)
(-22.8974 0.180793 -0.0175365)
(-22.8742 0.195922 -0.00709813)
(-22.8631 0.205301 -0.000121417)
(-22.8642 0.207157 -0.00507264)
(-22.8742 0.20687 -0.00445638)
(-22.6825 0.0179972 0.0183183)
(-22.5399 0.10878 0.00380664)
(-22.367 0.171476 -0.00586758)
(-22.2126 0.206296 -0.0148083)
(-22.0869 0.222803 -0.0140864)
(-21.9903 0.227919 -0.00996042)
(-21.9184 0.22713 -0.00524213)
(-21.866 0.224133 -0.00159484)
(-21.8278 0.219757 0.00218563)
(-22.4983 0.148736 0.00526019)
(-22.3512 0.209525 0.00679038)
(-22.201 0.232978 0.00477171)
(-22.0684 0.239129 -0.00349557)
(-21.961 0.238005 -0.00583841)
(-21.8791 0.23312 -0.00453354)
(-21.8187 0.226694 -0.00137921)
(-21.7749 0.220785 0.000482542)
(-21.7424 0.213718 0.00759348)
(-22.2424 0.284857 0.0162998)
(-22.1063 0.286603 0.0275187)
(-21.9865 0.266865 0.0244074)
(-21.8872 0.247745 0.0141151)
(-21.808 0.233071 0.00700732)
(-21.7474 0.221911 0.00481864)
(-21.7026 0.212872 0.00563329)
(-21.6702 0.205956 0.0065193)
(-21.6466 0.198907 0.0137073)
(-21.8526 0.335687 0.00627044)
(-21.7773 0.296332 0.0370307)
(-21.717 0.252365 0.0355551)
(-21.6692 0.222905 0.0248776)
(-21.6299 0.20517 0.0151348)
(-21.5982 0.194174 0.0112338)
(-21.5737 0.18652 0.0108925)
(-21.5558 0.18095 0.0118357)
(-21.5433 0.17599 0.0164766)
(-21.3938 0.212487 -0.00603499)
(-21.4059 0.198504 0.0348699)
(-21.4259 0.174759 0.037196)
(-21.4383 0.160221 0.0279332)
(-21.4422 0.153165 0.0189675)
(-21.4414 0.149498 0.0161096)
(-21.4393 0.147557 0.0161869)
(-21.4376 0.145903 0.0172662)
(-21.4365 0.144475 0.018486)
(-21.0384 -0.00461988 -0.000847323)
(-21.0955 0.0344006 0.0262644)
(-21.1711 0.0609416 0.0247793)
(-21.2285 0.0760065 0.0210036)
(-21.2675 0.0866499 0.0152346)
(-21.2931 0.0951718 0.0153151)
(-21.3107 0.100953 0.0171842)
(-21.3235 0.104726 0.0193968)
(-21.3327 0.10732 0.0196868)
(-20.8306 -0.187794 0.0160599)
(-20.8869 -0.117534 0.0193332)
(-20.9735 -0.0530668 0.00751713)
(-21.0559 -0.0090515 0.0148281)
(-21.1183 0.0183119 0.0117321)
(-21.1632 0.0383443 0.0160777)
(-21.1959 0.0518852 0.0194324)
(-21.2202 0.0612238 0.0222135)
(-21.2376 0.0676769 0.0227584)
(-20.7261 -0.273356 0.0146263)
(-20.7542 -0.219154 0.00479501)
(-20.8369 -0.144024 -0.0194838)
(-20.9275 -0.079202 -0.00288137)
(-21.0021 -0.0400983 0.00250973)
(-21.058 -0.0128506 0.0135544)